 Entering Gaussian System, Link 0=g16
 Input=1-modopt.gjf
 Output=1-modopt.log
 Initial command:
 /home/echo/g16/l1.exe "/home/echo/scratch/Gau-14858.inp" -scrdir="/home/echo/scratch/"
 Entering Link 1 = /home/echo/g16/l1.exe PID=     14860.
  
 Copyright (c) 1988-2019, Gaussian, Inc.  All Rights Reserved.
  
 This is part of the Gaussian(R) 16 program.  It is based on
 the Gaussian(R) 09 system (copyright 2009, Gaussian, Inc.),
 the Gaussian(R) 03 system (copyright 2003, Gaussian, Inc.),
 the Gaussian(R) 98 system (copyright 1998, Gaussian, Inc.),
 the Gaussian(R) 94 system (copyright 1995, Gaussian, Inc.),
 the Gaussian 92(TM) system (copyright 1992, Gaussian, Inc.),
 the Gaussian 90(TM) system (copyright 1990, Gaussian, Inc.),
 the Gaussian 88(TM) system (copyright 1988, Gaussian, Inc.),
 the Gaussian 86(TM) system (copyright 1986, Carnegie Mellon
 University), and the Gaussian 82(TM) system (copyright 1983,
 Carnegie Mellon University). Gaussian is a federally registered
 trademark of Gaussian, Inc.
  
 This software contains proprietary and confidential information,
 including trade secrets, belonging to Gaussian, Inc.
  
 This software is provided under written license and may be
 used, copied, transmitted, or stored only in accord with that
 written license.
  
 The following legend is applicable only to US Government
 contracts under FAR:
  
                    RESTRICTED RIGHTS LEGEND
  
 Use, reproduction and disclosure by the US Government is
 subject to restrictions as set forth in subparagraphs (a)
 and (c) of the Commercial Computer Software - Restricted
 Rights clause in FAR 52.227-19.
  
 Gaussian, Inc.
 340 Quinnipiac St., Bldg. 40, Wallingford CT 06492
  
  
 ---------------------------------------------------------------
 Warning -- This program may not be used in any manner that
 competes with the business of Gaussian, Inc. or will provide
 assistance to any competitor of Gaussian, Inc.  The licensee
 of this program is prohibited from giving any competitor of
 Gaussian, Inc. access to this program.  By using this program,
 the user acknowledges that Gaussian, Inc. is engaged in the
 business of creating and licensing software in the field of
 computational chemistry and represents and warrants to the
 licensee that it is not a competitor of Gaussian, Inc. and that
 it will not use this program in any manner prohibited above.
 ---------------------------------------------------------------
  

 Cite this work as:
 Gaussian 16, Revision C.01,
 M. J. Frisch, G. W. Trucks, H. B. Schlegel, G. E. Scuseria, 
 M. A. Robb, J. R. Cheeseman, G. Scalmani, V. Barone, 
 G. A. Petersson, H. Nakatsuji, X. Li, M. Caricato, A. V. Marenich, 
 J. Bloino, B. G. Janesko, R. Gomperts, B. Mennucci, H. P. Hratchian, 
 J. V. Ortiz, A. F. Izmaylov, J. L. Sonnenberg, D. Williams-Young, 
 F. Ding, F. Lipparini, F. Egidi, J. Goings, B. Peng, A. Petrone, 
 T. Henderson, D. Ranasinghe, V. G. Zakrzewski, J. Gao, N. Rega, 
 G. Zheng, W. Liang, M. Hada, M. Ehara, K. Toyota, R. Fukuda, 
 J. Hasegawa, M. Ishida, T. Nakajima, Y. Honda, O. Kitao, H. Nakai, 
 T. Vreven, K. Throssell, J. A. Montgomery, Jr., J. E. Peralta, 
 F. Ogliaro, M. J. Bearpark, J. J. Heyd, E. N. Brothers, K. N. Kudin, 
 V. N. Staroverov, T. A. Keith, R. Kobayashi, J. Normand, 
 K. Raghavachari, A. P. Rendell, J. C. Burant, S. S. Iyengar, 
 J. Tomasi, M. Cossi, J. M. Millam, M. Klene, C. Adamo, R. Cammi, 
 J. W. Ochterski, R. L. Martin, K. Morokuma, O. Farkas, 
 J. B. Foresman, and D. J. Fox, Gaussian, Inc., Wallingford CT, 2019.
 
 ******************************************
 Gaussian 16:  ES64L-G16RevC.01  3-Jul-2019
                28-Sep-2025 
 ******************************************
 %chk=1-modopt.chk
 -------------------------------------------------
 #p opt=(modredundant,nomicro) external='./xtb.sh'
 -------------------------------------------------
 1/18=120,19=15,26=1,38=1/1,3;
 2/9=110,12=2,17=6,18=5,40=1/2;
 3/11=9,25=1,30=1,41=9900000,43=2,71=1/1;
 4/20=17,22=1,24=3,113=1,114=1/2;
 6/7=2,8=2,9=2,10=2/1;
 7/44=-1/16;
 1/18=20,19=15,26=1/3(2);
 2/9=110/2;
 99//99;
 2/9=110/2;
 3/11=9,25=1,30=1,41=9900000,43=2,71=1/1;
 4/16=2,20=17,22=1,24=3,113=1,114=1/2;
 7/44=-1/16;
 1/18=20,19=15,26=1/3(-4);
 2/9=110/2;
 6/7=2,8=2,9=2,10=2/1;
 99/9=10/99;
 Leave Link    1 at Sun Sep 28 17:24:34 2025, MaxMem=           0 cpu:               0.0 elap:               0.1
 (Enter /home/echo/g16/l101.exe)
 ------------------------------
 Generate automatically by rxnb
 ------------------------------
 Symbolic Z-matrix:
 Charge =  0 Multiplicity = 1
 C                    -0.14084   1.07269   5.18569 
 C                    -2.38128   1.85532   6.14711 
 C                    -1.04451   1.20397   6.30736 
 C                     0.9009    0.16996   5.62553 
 C                     0.67899  -0.17258   6.99029 
 C                    -0.53398   0.45446   7.41309 
 H                     1.74936  -0.1342    5.01611 
 H                     1.30866  -0.8179    7.60039 
 H                    -1.00745   0.34247   8.38737 
 H                    -3.0666    1.60085   6.97446 
 N                    -2.99092   1.47057   4.83461 
 H                    -2.27139   2.95038   6.12788 
 C                    -1.12165  -2.61578   4.87938 
 C                    -1.58526  -2.67463   6.23017 
 C                    -2.63481  -1.71958   6.37794 
 C                    -2.8047   -1.04036   5.12469 
 C                    -1.88352  -1.62996   4.19279 
 H                    -0.32439  -3.21791   4.44816 
 H                    -1.20245  -3.32838   7.01173 
 H                    -3.18242  -1.50482   7.29468 
 H                    -1.76528  -1.33677   3.15196 
 Fe                   -0.92899  -0.75262   5.81268 
 C                    -3.69176   0.14267   4.8698 
 H                    -4.48277   0.19398   5.63966 
 H                    -4.17917   0.04028   3.89078 
 C                    -3.95863   2.49533   4.38789 
 H                    -4.309     2.23812   3.38132 
 H                    -4.81248   2.55479   5.087 
 H                    -3.45961   3.47122   4.34079 
 Pd                   -1.3793    1.38347   3.43369 
 O                    -2.62176   1.4609    1.8514 
 N                    -0.00278   1.45317   2.00985 
 C                    -2.05589   1.28664   0.67484 
 C                    -0.50737   1.27493   0.65386 
 C                     1.16238   1.99357   2.30524 
 O                    -2.68141   1.13392  -0.35249 
 O                     1.49413   2.27258   3.5002 
 H                     0.4957    1.82621   4.28588 
 H                    -0.19988   2.13314   0.03158 
 O                     2.03121   2.24542   1.21066 
 C                     2.43654   4.50087   1.94233 
 C                     3.01698   3.16456   1.52922 
 C                     3.95893   2.64833   2.59606 
 C                     3.82906   3.39537   0.271 
 H                     2.12266   5.01418   0.99206 
 H                     3.20679   5.09017   2.47701 
 H                     1.52555   4.31804   2.55977 
 H                     4.30025   3.543     3.1824 
 H                     4.87566   2.22016   2.14257 
 H                     3.46303   1.97864   3.31597 
 H                     4.62782   4.1591    0.41989 
 H                     3.11386   3.66952  -0.52637 
 H                     4.25397   2.40969  -0.01191 
 C                     0.        0.        0. 
 H                     1.11124   0.        0. 
 H                    -0.34606  -0.86437   0.61945 
 H                    -0.40221  -0.08493  -1.03343 
 
 Add virtual bond connecting atoms H38        and C1         Dist= 2.52D+00.
 Add virtual bond connecting atoms H38        and O37        Dist= 2.54D+00.
 The following ModRedundant input section has been read:
 B      37      38 F                                                           
 B       1      38 F                                                           
 B      11      30 F                                                           
 B       1      30 F                                                           
 B      30      32 F                                                           
 B      30      31 F                                                           
 
 ITRead=  0  0  0  0  0  0  0  0  0  0  0  0  0  0  0  0  0  0  0  0
 ITRead=  0  0  0  0  0  0  0  0  0  0  0  0  0  0  0  0  0  0  0  0
 ITRead=  0  0  0  0  0  0  0  0  0  0  0  0  0  0  0  0  0
 MicOpt= -1 -1 -1 -1 -1 -1 -1 -1 -1 -1 -1 -1 -1 -1 -1 -1 -1 -1 -1 -1
 MicOpt= -1 -1 -1 -1 -1 -1 -1 -1 -1 -1 -1 -1 -1 -1 -1 -1 -1 -1 -1 -1
 MicOpt= -1 -1 -1 -1 -1 -1 -1 -1 -1 -1 -1 -1 -1 -1 -1 -1 -1
 NAtoms=     57 NQM=       57 NQMF=       0 NMMI=      0 NMMIF=      0
                NMic=       0 NMicF=      0.
                    Isotopes and Nuclear Properties:
 (Nuclear quadrupole moments (NQMom) in fm**2, nuclear magnetic moments (NMagM)
  in nuclear magnetons)

  Atom         1           2           3           4           5           6           7           8           9          10
 IAtWgt=          12          12          12          12          12          12           1           1           1           1
 AtmWgt=  12.0000000  12.0000000  12.0000000  12.0000000  12.0000000  12.0000000   1.0078250   1.0078250   1.0078250   1.0078250
 NucSpn=           0           0           0           0           0           0           1           1           1           1
 AtZEff=  -0.0000000  -0.0000000  -0.0000000  -0.0000000  -0.0000000  -0.0000000  -0.0000000  -0.0000000  -0.0000000  -0.0000000
 NQMom=    0.0000000   0.0000000   0.0000000   0.0000000   0.0000000   0.0000000   0.0000000   0.0000000   0.0000000   0.0000000
 NMagM=    0.0000000   0.0000000   0.0000000   0.0000000   0.0000000   0.0000000   2.7928460   2.7928460   2.7928460   2.7928460
 AtZNuc=   6.0000000   6.0000000   6.0000000   6.0000000   6.0000000   6.0000000   1.0000000   1.0000000   1.0000000   1.0000000

  Atom        11          12          13          14          15          16          17          18          19          20
 IAtWgt=          14           1          12          12          12          12          12           1           1           1
 AtmWgt=  14.0030740   1.0078250  12.0000000  12.0000000  12.0000000  12.0000000  12.0000000   1.0078250   1.0078250   1.0078250
 NucSpn=           2           1           0           0           0           0           0           1           1           1
 AtZEff=  -0.0000000  -0.0000000  -0.0000000  -0.0000000  -0.0000000  -0.0000000  -0.0000000  -0.0000000  -0.0000000  -0.0000000
 NQMom=    2.0440000   0.0000000   0.0000000   0.0000000   0.0000000   0.0000000   0.0000000   0.0000000   0.0000000   0.0000000
 NMagM=    0.4037610   2.7928460   0.0000000   0.0000000   0.0000000   0.0000000   0.0000000   2.7928460   2.7928460   2.7928460
 AtZNuc=   7.0000000   1.0000000   6.0000000   6.0000000   6.0000000   6.0000000   6.0000000   1.0000000   1.0000000   1.0000000

  Atom        21          22          23          24          25          26          27          28          29          30
 IAtWgt=           1          56          12           1           1          12           1           1           1         106
 AtmWgt=   1.0078250  55.9349393  12.0000000   1.0078250   1.0078250  12.0000000   1.0078250   1.0078250   1.0078250 105.9032000
 NucSpn=           1           0           0           1           1           0           1           1           1           0
 AtZEff=  -0.0000000  -0.0000000  -0.0000000  -0.0000000  -0.0000000  -0.0000000  -0.0000000  -0.0000000  -0.0000000  -0.0000000
 NQMom=    0.0000000   0.0000000   0.0000000   0.0000000   0.0000000   0.0000000   0.0000000   0.0000000   0.0000000   0.0000000
 NMagM=    2.7928460   0.0000000   0.0000000   2.7928460   2.7928460   0.0000000   2.7928460   2.7928460   2.7928460   0.0000000
 AtZNuc=   1.0000000  26.0000000   6.0000000   1.0000000   1.0000000   6.0000000   1.0000000   1.0000000   1.0000000  46.0000000

  Atom        31          32          33          34          35          36          37          38          39          40
 IAtWgt=          16          14          12          12          12          16          16           1           1          16
 AtmWgt=  15.9949146  14.0030740  12.0000000  12.0000000  12.0000000  15.9949146  15.9949146   1.0078250   1.0078250  15.9949146
 NucSpn=           0           2           0           0           0           0           0           1           1           0
 AtZEff=  -0.0000000  -0.0000000  -0.0000000  -0.0000000  -0.0000000  -0.0000000  -0.0000000  -0.0000000  -0.0000000  -0.0000000
 NQMom=    0.0000000   2.0440000   0.0000000   0.0000000   0.0000000   0.0000000   0.0000000   0.0000000   0.0000000   0.0000000
 NMagM=    0.0000000   0.4037610   0.0000000   0.0000000   0.0000000   0.0000000   0.0000000   2.7928460   2.7928460   0.0000000
 AtZNuc=   8.0000000   7.0000000   6.0000000   6.0000000   6.0000000   8.0000000   8.0000000   1.0000000   1.0000000   8.0000000

  Atom        41          42          43          44          45          46          47          48          49          50
 IAtWgt=          12          12          12          12           1           1           1           1           1           1
 AtmWgt=  12.0000000  12.0000000  12.0000000  12.0000000   1.0078250   1.0078250   1.0078250   1.0078250   1.0078250   1.0078250
 NucSpn=           0           0           0           0           1           1           1           1           1           1
 AtZEff=  -0.0000000  -0.0000000  -0.0000000  -0.0000000  -0.0000000  -0.0000000  -0.0000000  -0.0000000  -0.0000000  -0.0000000
 NQMom=    0.0000000   0.0000000   0.0000000   0.0000000   0.0000000   0.0000000   0.0000000   0.0000000   0.0000000   0.0000000
 NMagM=    0.0000000   0.0000000   0.0000000   0.0000000   2.7928460   2.7928460   2.7928460   2.7928460   2.7928460   2.7928460
 AtZNuc=   6.0000000   6.0000000   6.0000000   6.0000000   1.0000000   1.0000000   1.0000000   1.0000000   1.0000000   1.0000000

  Atom        51          52          53          54          55          56          57
 IAtWgt=           1           1           1          12           1           1           1
 AtmWgt=   1.0078250   1.0078250   1.0078250  12.0000000   1.0078250   1.0078250   1.0078250
 NucSpn=           1           1           1           0           1           1           1
 AtZEff=  -0.0000000  -0.0000000  -0.0000000  -0.0000000  -0.0000000  -0.0000000  -0.0000000
 NQMom=    0.0000000   0.0000000   0.0000000   0.0000000   0.0000000   0.0000000   0.0000000
 NMagM=    2.7928460   2.7928460   2.7928460   0.0000000   2.7928460   2.7928460   2.7928460
 AtZNuc=   1.0000000   1.0000000   1.0000000   6.0000000   1.0000000   1.0000000   1.0000000
 Leave Link  101 at Sun Sep 28 17:24:34 2025, MaxMem=   104857600 cpu:               0.3 elap:               0.4
 (Enter /home/echo/g16/l103.exe)

 GradGradGradGradGradGradGradGradGradGradGradGradGradGradGradGradGradGrad
 Berny optimization.
 Initialization pass.
                           ----------------------------
                           !    Initial Parameters    !
                           ! (Angstroms and Degrees)  !
 --------------------------                            --------------------------
 ! Name  Definition              Value          Derivative Info.                !
 --------------------------------------------------------------------------------
 ! R1    R(1,3)                  1.4464         estimate D2E/DX2                !
 ! R2    R(1,4)                  1.4469         estimate D2E/DX2                !
 ! R3    R(1,22)                 2.0847         estimate D2E/DX2                !
 ! R4    R(1,30)                 2.1679         Frozen                          !
 ! R5    R(1,38)                 1.3352         Frozen                          !
 ! R6    R(2,3)                  1.4956         estimate D2E/DX2                !
 ! R7    R(2,10)                 1.1041         estimate D2E/DX2                !
 ! R8    R(2,11)                 1.4974         estimate D2E/DX2                !
 ! R9    R(2,12)                 1.1007         estimate D2E/DX2                !
 ! R10   R(3,6)                  1.4301         estimate D2E/DX2                !
 ! R11   R(3,22)                 2.0215         estimate D2E/DX2                !
 ! R12   R(4,5)                  1.4245         estimate D2E/DX2                !
 ! R13   R(4,7)                  1.088          estimate D2E/DX2                !
 ! R14   R(4,22)                 2.0578         estimate D2E/DX2                !
 ! R15   R(5,6)                  1.4294         estimate D2E/DX2                !
 ! R16   R(5,8)                  1.0886         estimate D2E/DX2                !
 ! R17   R(5,22)                 2.0758         estimate D2E/DX2                !
 ! R18   R(6,9)                  1.089          estimate D2E/DX2                !
 ! R19   R(6,22)                 2.0431         estimate D2E/DX2                !
 ! R20   R(11,23)                1.5019         estimate D2E/DX2                !
 ! R21   R(11,26)                1.4786         estimate D2E/DX2                !
 ! R22   R(11,30)                2.1372         Frozen                          !
 ! R23   R(13,14)                1.4293         estimate D2E/DX2                !
 ! R24   R(13,17)                1.4226         estimate D2E/DX2                !
 ! R25   R(13,18)                1.0882         estimate D2E/DX2                !
 ! R26   R(13,22)                2.0927         estimate D2E/DX2                !
 ! R27   R(14,15)                1.4267         estimate D2E/DX2                !
 ! R28   R(14,19)                1.0885         estimate D2E/DX2                !
 ! R29   R(14,22)                2.0734         estimate D2E/DX2                !
 ! R30   R(15,16)                1.4356         estimate D2E/DX2                !
 ! R31   R(15,20)                1.0892         estimate D2E/DX2                !
 ! R32   R(15,22)                2.0407         estimate D2E/DX2                !
 ! R33   R(16,17)                1.4369         estimate D2E/DX2                !
 ! R34   R(16,22)                2.0185         estimate D2E/DX2                !
 ! R35   R(16,23)                1.5005         estimate D2E/DX2                !
 ! R36   R(17,21)                1.0878         estimate D2E/DX2                !
 ! R37   R(17,22)                2.0748         estimate D2E/DX2                !
 ! R38   R(23,24)                1.105          estimate D2E/DX2                !
 ! R39   R(23,25)                1.0984         estimate D2E/DX2                !
 ! R40   R(26,27)                1.0964         estimate D2E/DX2                !
 ! R41   R(26,28)                1.1051         estimate D2E/DX2                !
 ! R42   R(26,29)                1.0971         estimate D2E/DX2                !
 ! R43   R(30,31)                2.0133         Frozen                          !
 ! R44   R(30,32)                1.9817         Frozen                          !
 ! R45   R(31,33)                1.3171         estimate D2E/DX2                !
 ! R46   R(32,34)                1.4578         estimate D2E/DX2                !
 ! R47   R(32,35)                1.3179         estimate D2E/DX2                !
 ! R48   R(33,34)                1.5487         estimate D2E/DX2                !
 ! R49   R(33,36)                1.2124         estimate D2E/DX2                !
 ! R50   R(34,39)                1.1038         estimate D2E/DX2                !
 ! R51   R(34,54)                1.52           estimate D2E/DX2                !
 ! R52   R(35,37)                1.2712         estimate D2E/DX2                !
 ! R53   R(35,40)                1.42           estimate D2E/DX2                !
 ! R54   R(37,38)                1.3466         Frozen                          !
 ! R55   R(40,42)                1.3849         estimate D2E/DX2                !
 ! R56   R(41,42)                1.5144         estimate D2E/DX2                !
 ! R57   R(41,45)                1.1247         estimate D2E/DX2                !
 ! R58   R(41,46)                1.1074         estimate D2E/DX2                !
 ! R59   R(41,47)                1.1156         estimate D2E/DX2                !
 ! R60   R(42,43)                1.5139         estimate D2E/DX2                !
 ! R61   R(42,44)                1.5152         estimate D2E/DX2                !
 ! R62   R(43,48)                1.1228         estimate D2E/DX2                !
 ! R63   R(43,49)                1.1088         estimate D2E/DX2                !
 ! R64   R(43,50)                1.1012         estimate D2E/DX2                !
 ! R65   R(44,51)                1.1151         estimate D2E/DX2                !
 ! R66   R(44,52)                1.1057         estimate D2E/DX2                !
 ! R67   R(44,53)                1.11           estimate D2E/DX2                !
 ! R68   R(54,55)                1.1112         estimate D2E/DX2                !
 ! R69   R(54,56)                1.1183         estimate D2E/DX2                !
 ! R70   R(54,57)                1.1122         estimate D2E/DX2                !
 ! A1    A(3,1,4)              105.7066         estimate D2E/DX2                !
 ! A2    A(3,1,30)             104.8799         estimate D2E/DX2                !
 ! A3    A(3,1,38)             140.2897         estimate D2E/DX2                !
 ! A4    A(4,1,30)             138.2789         estimate D2E/DX2                !
 ! A5    A(4,1,38)             102.3407         estimate D2E/DX2                !
 ! A6    A(22,1,30)             98.7775         estimate D2E/DX2                !
 ! A7    A(22,1,38)            151.2916         estimate D2E/DX2                !
 ! A8    A(30,1,38)             69.3173         estimate D2E/DX2                !
 ! A9    A(3,2,10)             111.9707         estimate D2E/DX2                !
 ! A10   A(3,2,11)             110.2364         estimate D2E/DX2                !
 ! A11   A(3,2,12)             110.2369         estimate D2E/DX2                !
 ! A12   A(10,2,11)            110.1751         estimate D2E/DX2                !
 ! A13   A(10,2,12)            107.7198         estimate D2E/DX2                !
 ! A14   A(11,2,12)            106.3167         estimate D2E/DX2                !
 ! A15   A(1,3,2)              120.9881         estimate D2E/DX2                !
 ! A16   A(1,3,6)              109.2086         estimate D2E/DX2                !
 ! A17   A(2,3,6)              129.0637         estimate D2E/DX2                !
 ! A18   A(2,3,22)             116.512          estimate D2E/DX2                !
 ! A19   A(1,4,5)              109.2144         estimate D2E/DX2                !
 ! A20   A(1,4,7)              124.4432         estimate D2E/DX2                !
 ! A21   A(5,4,7)              126.2205         estimate D2E/DX2                !
 ! A22   A(7,4,22)             128.2467         estimate D2E/DX2                !
 ! A23   A(4,5,6)              108.0648         estimate D2E/DX2                !
 ! A24   A(4,5,8)              126.1119         estimate D2E/DX2                !
 ! A25   A(6,5,8)              125.8088         estimate D2E/DX2                !
 ! A26   A(8,5,22)             126.8947         estimate D2E/DX2                !
 ! A27   A(3,6,5)              107.7071         estimate D2E/DX2                !
 ! A28   A(3,6,9)              126.188          estimate D2E/DX2                !
 ! A29   A(5,6,9)              126.0471         estimate D2E/DX2                !
 ! A30   A(9,6,22)             123.778          estimate D2E/DX2                !
 ! A31   A(2,11,23)            113.3663         estimate D2E/DX2                !
 ! A32   A(2,11,26)            110.6828         estimate D2E/DX2                !
 ! A33   A(2,11,30)            106.1414         estimate D2E/DX2                !
 ! A34   A(23,11,26)           108.3276         estimate D2E/DX2                !
 ! A35   A(23,11,30)           109.3422         estimate D2E/DX2                !
 ! A36   A(26,11,30)           108.8896         estimate D2E/DX2                !
 ! A37   A(14,13,17)           108.1158         estimate D2E/DX2                !
 ! A38   A(14,13,18)           126.1111         estimate D2E/DX2                !
 ! A39   A(17,13,18)           125.7731         estimate D2E/DX2                !
 ! A40   A(18,13,22)           127.0072         estimate D2E/DX2                !
 ! A41   A(13,14,15)           107.9945         estimate D2E/DX2                !
 ! A42   A(13,14,19)           126.1022         estimate D2E/DX2                !
 ! A43   A(15,14,19)           125.9024         estimate D2E/DX2                !
 ! A44   A(19,14,22)           126.1579         estimate D2E/DX2                !
 ! A45   A(14,15,16)           108.2619         estimate D2E/DX2                !
 ! A46   A(14,15,20)           126.0863         estimate D2E/DX2                !
 ! A47   A(16,15,20)           125.5894         estimate D2E/DX2                !
 ! A48   A(20,15,22)           124.0531         estimate D2E/DX2                !
 ! A49   A(15,16,17)           107.2282         estimate D2E/DX2                !
 ! A50   A(15,16,23)           126.2497         estimate D2E/DX2                !
 ! A51   A(17,16,23)           126.3245         estimate D2E/DX2                !
 ! A52   A(22,16,23)           119.6612         estimate D2E/DX2                !
 ! A53   A(13,17,16)           108.3415         estimate D2E/DX2                !
 ! A54   A(13,17,21)           126.1837         estimate D2E/DX2                !
 ! A55   A(16,17,21)           125.426          estimate D2E/DX2                !
 ! A56   A(21,17,22)           125.666          estimate D2E/DX2                !
 ! A57   A(1,22,5)              68.4753         estimate D2E/DX2                !
 ! A58   A(1,22,6)              69.2194         estimate D2E/DX2                !
 ! A59   A(1,22,13)            132.8587         estimate D2E/DX2                !
 ! A60   A(1,22,15)            144.5097         estimate D2E/DX2                !
 ! A61   A(1,22,16)            111.9388         estimate D2E/DX2                !
 ! A62   A(1,22,17)            108.0201         estimate D2E/DX2                !
 ! A63   A(3,22,4)              68.8466         estimate D2E/DX2                !
 ! A64   A(3,22,5)              68.5907         estimate D2E/DX2                !
 ! A65   A(3,22,13)            164.929          estimate D2E/DX2                !
 ! A66   A(3,22,14)            146.0847         estimate D2E/DX2                !
 ! A67   A(3,22,15)            110.0648         estimate D2E/DX2                !
 ! A68   A(3,22,16)             99.6878         estimate D2E/DX2                !
 ! A69   A(3,22,17)            125.033          estimate D2E/DX2                !
 ! A70   A(4,22,6)              68.5584         estimate D2E/DX2                !
 ! A71   A(4,22,13)            116.1326         estimate D2E/DX2                !
 ! A72   A(4,22,14)            135.672          estimate D2E/DX2                !
 ! A73   A(4,22,16)            149.2303         estimate D2E/DX2                !
 ! A74   A(4,22,17)            121.8478         estimate D2E/DX2                !
 ! A75   A(5,22,13)            124.9667         estimate D2E/DX2                !
 ! A76   A(5,22,14)            112.9535         estimate D2E/DX2                !
 ! A77   A(5,22,15)            128.5206         estimate D2E/DX2                !
 ! A78   A(5,22,16)            162.3704         estimate D2E/DX2                !
 ! A79   A(5,22,17)            156.5572         estimate D2E/DX2                !
 ! A80   A(6,22,13)            153.2682         estimate D2E/DX2                !
 ! A81   A(6,22,14)            116.8159         estimate D2E/DX2                !
 ! A82   A(6,22,15)            102.9783         estimate D2E/DX2                !
 ! A83   A(6,22,16)            122.0635         estimate D2E/DX2                !
 ! A84   A(6,22,17)            161.8647         estimate D2E/DX2                !
 ! A85   A(13,22,15)            67.9581         estimate D2E/DX2                !
 ! A86   A(13,22,16)            68.6253         estimate D2E/DX2                !
 ! A87   A(14,22,16)            69.0451         estimate D2E/DX2                !
 ! A88   A(14,22,17)            67.6427         estimate D2E/DX2                !
 ! A89   A(15,22,17)            68.3666         estimate D2E/DX2                !
 ! A90   A(11,23,16)           115.1636         estimate D2E/DX2                !
 ! A91   A(11,23,24)           108.0175         estimate D2E/DX2                !
 ! A92   A(11,23,25)           105.5806         estimate D2E/DX2                !
 ! A93   A(16,23,24)           109.9659         estimate D2E/DX2                !
 ! A94   A(16,23,25)           109.8918         estimate D2E/DX2                !
 ! A95   A(24,23,25)           107.9179         estimate D2E/DX2                !
 ! A96   A(11,26,27)           108.9011         estimate D2E/DX2                !
 ! A97   A(11,26,28)           110.5994         estimate D2E/DX2                !
 ! A98   A(11,26,29)           109.3769         estimate D2E/DX2                !
 ! A99   A(27,26,28)           110.2726         estimate D2E/DX2                !
 ! A100  A(27,26,29)           108.3379         estimate D2E/DX2                !
 ! A101  A(28,26,29)           109.313          estimate D2E/DX2                !
 ! A102  A(1,30,11)             84.6572         estimate D2E/DX2                !
 ! A103  A(1,30,32)            100.8877         estimate D2E/DX2                !
 ! A104  A(11,30,31)            92.7648         estimate D2E/DX2                !
 ! A105  A(31,30,32)            82.1044         estimate D2E/DX2                !
 ! A106  A(30,31,33)           115.583          estimate D2E/DX2                !
 ! A107  A(30,32,34)           115.0624         estimate D2E/DX2                !
 ! A108  A(30,32,35)           117.8721         estimate D2E/DX2                !
 ! A109  A(34,32,35)           124.3775         estimate D2E/DX2                !
 ! A110  A(31,33,34)           116.2743         estimate D2E/DX2                !
 ! A111  A(31,33,36)           123.4977         estimate D2E/DX2                !
 ! A112  A(34,33,36)           120.2269         estimate D2E/DX2                !
 ! A113  A(32,34,33)           109.4249         estimate D2E/DX2                !
 ! A114  A(32,34,39)           109.4461         estimate D2E/DX2                !
 ! A115  A(32,34,54)           112.7775         estimate D2E/DX2                !
 ! A116  A(33,34,39)           106.2785         estimate D2E/DX2                !
 ! A117  A(33,34,54)           110.2383         estimate D2E/DX2                !
 ! A118  A(39,34,54)           108.4608         estimate D2E/DX2                !
 ! A119  A(32,35,37)           122.1026         estimate D2E/DX2                !
 ! A120  A(32,35,40)           116.1608         estimate D2E/DX2                !
 ! A121  A(37,35,40)           121.7365         estimate D2E/DX2                !
 ! A122  A(35,37,38)           106.3924         estimate D2E/DX2                !
 ! A123  A(1,38,37)            159.0284         estimate D2E/DX2                !
 ! A124  A(35,40,42)           112.0804         estimate D2E/DX2                !
 ! A125  A(42,41,45)           106.213          estimate D2E/DX2                !
 ! A126  A(42,41,46)           109.5531         estimate D2E/DX2                !
 ! A127  A(42,41,47)           108.624          estimate D2E/DX2                !
 ! A128  A(45,41,46)           111.0486         estimate D2E/DX2                !
 ! A129  A(45,41,47)           108.3317         estimate D2E/DX2                !
 ! A130  A(46,41,47)           112.8269         estimate D2E/DX2                !
 ! A131  A(40,42,41)           112.0594         estimate D2E/DX2                !
 ! A132  A(40,42,43)           112.2504         estimate D2E/DX2                !
 ! A133  A(40,42,44)           106.952          estimate D2E/DX2                !
 ! A134  A(41,42,43)           110.3128         estimate D2E/DX2                !
 ! A135  A(41,42,44)           107.3095         estimate D2E/DX2                !
 ! A136  A(43,42,44)           107.6768         estimate D2E/DX2                !
 ! A137  A(42,43,48)           106.5844         estimate D2E/DX2                !
 ! A138  A(42,43,49)           110.9707         estimate D2E/DX2                !
 ! A139  A(42,43,50)           112.822          estimate D2E/DX2                !
 ! A140  A(48,43,49)           105.6611         estimate D2E/DX2                !
 ! A141  A(48,43,50)           106.2645         estimate D2E/DX2                !
 ! A142  A(49,43,50)           113.8826         estimate D2E/DX2                !
 ! A143  A(42,44,51)           112.1702         estimate D2E/DX2                !
 ! A144  A(42,44,52)           106.8547         estimate D2E/DX2                !
 ! A145  A(42,44,53)           106.3518         estimate D2E/DX2                !
 ! A146  A(51,44,52)           112.9432         estimate D2E/DX2                !
 ! A147  A(51,44,53)           111.5926         estimate D2E/DX2                !
 ! A148  A(52,44,53)           106.4982         estimate D2E/DX2                !
 ! A149  A(34,54,55)           109.4993         estimate D2E/DX2                !
 ! A150  A(34,54,56)           107.8626         estimate D2E/DX2                !
 ! A151  A(34,54,57)           110.0626         estimate D2E/DX2                !
 ! A152  A(55,54,56)           108.0261         estimate D2E/DX2                !
 ! A153  A(55,54,57)           111.2008         estimate D2E/DX2                !
 ! A154  A(56,54,57)           110.1061         estimate D2E/DX2                !
 ! A155  L(1,22,14,5,-1)       181.4287         estimate D2E/DX2                !
 ! A156  L(4,22,15,3,-1)       178.9114         estimate D2E/DX2                !
 ! A157  L(1,30,31,32,-1)      182.9921         estimate D2E/DX2                !
 ! A158  L(11,30,32,31,-1)     174.8692         estimate D2E/DX2                !
 ! A159  L(1,22,14,5,-2)       187.7602         estimate D2E/DX2                !
 ! A160  L(4,22,15,3,-2)       191.9152         estimate D2E/DX2                !
 ! A161  L(1,30,31,32,-2)      173.9393         estimate D2E/DX2                !
 ! A162  L(11,30,32,31,-2)     175.8228         estimate D2E/DX2                !
 ! D1    D(4,1,3,2)           -168.3961         estimate D2E/DX2                !
 ! D2    D(4,1,3,6)              2.6023         estimate D2E/DX2                !
 ! D3    D(30,1,3,2)           -17.1177         estimate D2E/DX2                !
 ! D4    D(30,1,3,6)           153.8807         estimate D2E/DX2                !
 ! D5    D(38,1,3,2)            58.2826         estimate D2E/DX2                !
 ! D6    D(38,1,3,6)          -130.7191         estimate D2E/DX2                !
 ! D7    D(3,1,4,5)             -3.2317         estimate D2E/DX2                !
 ! D8    D(3,1,4,7)           -179.4292         estimate D2E/DX2                !
 ! D9    D(30,1,4,5)          -138.9749         estimate D2E/DX2                !
 ! D10   D(30,1,4,7)            44.8275         estimate D2E/DX2                !
 ! D11   D(38,1,4,5)           148.3563         estimate D2E/DX2                !
 ! D12   D(38,1,4,7)           -27.8413         estimate D2E/DX2                !
 ! D13   D(30,1,22,5)          175.8309         estimate D2E/DX2                !
 ! D14   D(30,1,22,6)         -140.4949         estimate D2E/DX2                !
 ! D15   D(30,1,22,13)          57.507          estimate D2E/DX2                !
 ! D16   D(30,1,22,15)         -57.2975         estimate D2E/DX2                !
 ! D17   D(30,1,22,16)         -23.1544         estimate D2E/DX2                !
 ! D18   D(30,1,22,17)          20.4899         estimate D2E/DX2                !
 ! D19   D(38,1,22,5)          113.3511         estimate D2E/DX2                !
 ! D20   D(38,1,22,6)          157.0253         estimate D2E/DX2                !
 ! D21   D(38,1,22,13)          -4.9728         estimate D2E/DX2                !
 ! D22   D(38,1,22,15)        -119.7772         estimate D2E/DX2                !
 ! D23   D(38,1,22,16)         -85.6342         estimate D2E/DX2                !
 ! D24   D(38,1,22,17)         -41.9899         estimate D2E/DX2                !
 ! D25   D(3,1,30,11)           -4.5176         estimate D2E/DX2                !
 ! D26   D(3,1,30,32)          171.8577         estimate D2E/DX2                !
 ! D27   D(4,1,30,11)          131.4451         estimate D2E/DX2                !
 ! D28   D(4,1,30,32)          -52.1796         estimate D2E/DX2                !
 ! D29   D(22,1,30,11)          63.9358         estimate D2E/DX2                !
 ! D30   D(22,1,30,32)        -119.6889         estimate D2E/DX2                !
 ! D31   D(38,1,30,11)        -143.1514         estimate D2E/DX2                !
 ! D32   D(38,1,30,32)          33.2238         estimate D2E/DX2                !
 ! D33   D(3,1,38,37)          137.0175         estimate D2E/DX2                !
 ! D34   D(4,1,38,37)            2.8181         estimate D2E/DX2                !
 ! D35   D(22,1,38,37)         -64.8846         estimate D2E/DX2                !
 ! D36   D(30,1,38,37)        -134.4121         estimate D2E/DX2                !
 ! D37   D(10,2,3,1)           161.8418         estimate D2E/DX2                !
 ! D38   D(10,2,3,6)            -7.1883         estimate D2E/DX2                !
 ! D39   D(10,2,3,22)           78.0913         estimate D2E/DX2                !
 ! D40   D(11,2,3,1)            38.8111         estimate D2E/DX2                !
 ! D41   D(11,2,3,6)          -130.2191         estimate D2E/DX2                !
 ! D42   D(11,2,3,22)          -44.9394         estimate D2E/DX2                !
 ! D43   D(12,2,3,1)           -78.2561         estimate D2E/DX2                !
 ! D44   D(12,2,3,6)           112.7138         estimate D2E/DX2                !
 ! D45   D(12,2,3,22)         -162.0066         estimate D2E/DX2                !
 ! D46   D(3,2,11,23)           82.8189         estimate D2E/DX2                !
 ! D47   D(3,2,11,26)         -155.2266         estimate D2E/DX2                !
 ! D48   D(3,2,11,30)          -37.2239         estimate D2E/DX2                !
 ! D49   D(10,2,11,23)         -41.2552         estimate D2E/DX2                !
 ! D50   D(10,2,11,26)          80.6993         estimate D2E/DX2                !
 ! D51   D(10,2,11,30)        -161.298          estimate D2E/DX2                !
 ! D52   D(12,2,11,23)        -157.7059         estimate D2E/DX2                !
 ! D53   D(12,2,11,26)         -35.7514         estimate D2E/DX2                !
 ! D54   D(12,2,11,30)          82.2513         estimate D2E/DX2                !
 ! D55   D(1,3,6,5)             -1.0303         estimate D2E/DX2                !
 ! D56   D(1,3,6,9)           -178.3905         estimate D2E/DX2                !
 ! D57   D(2,3,6,5)            169.0219         estimate D2E/DX2                !
 ! D58   D(2,3,6,9)             -8.3383         estimate D2E/DX2                !
 ! D59   D(2,3,22,4)           154.1247         estimate D2E/DX2                !
 ! D60   D(2,3,22,5)          -162.4692         estimate D2E/DX2                !
 ! D61   D(2,3,22,13)           41.8301         estimate D2E/DX2                !
 ! D62   D(2,3,22,14)          -62.8211         estimate D2E/DX2                !
 ! D63   D(2,3,22,15)          -37.7905         estimate D2E/DX2                !
 ! D64   D(2,3,22,16)            3.8302         estimate D2E/DX2                !
 ! D65   D(2,3,22,17)           39.3085         estimate D2E/DX2                !
 ! D66   D(1,4,5,6)              2.6739         estimate D2E/DX2                !
 ! D67   D(1,4,5,8)           -178.6488         estimate D2E/DX2                !
 ! D68   D(7,4,5,6)            178.7868         estimate D2E/DX2                !
 ! D69   D(7,4,5,8)             -2.536          estimate D2E/DX2                !
 ! D70   D(7,4,22,3)          -157.2821         estimate D2E/DX2                !
 ! D71   D(7,4,22,6)           158.3509         estimate D2E/DX2                !
 ! D72   D(7,4,22,13)            7.1743         estimate D2E/DX2                !
 ! D73   D(7,4,22,14)           51.3999         estimate D2E/DX2                !
 ! D74   D(7,4,22,16)          -84.5702         estimate D2E/DX2                !
 ! D75   D(7,4,22,17)          -38.3187         estimate D2E/DX2                !
 ! D76   D(4,5,6,3)             -1.0064         estimate D2E/DX2                !
 ! D77   D(4,5,6,9)            176.3585         estimate D2E/DX2                !
 ! D78   D(8,5,6,3)           -179.6887         estimate D2E/DX2                !
 ! D79   D(8,5,6,9)             -2.3238         estimate D2E/DX2                !
 ! D80   D(8,5,22,1)          -157.8707         estimate D2E/DX2                !
 ! D81   D(8,5,22,3)           157.687          estimate D2E/DX2                !
 ! D82   D(8,5,22,13)          -29.8153         estimate D2E/DX2                !
 ! D83   D(8,5,22,14)           14.3691         estimate D2E/DX2                !
 ! D84   D(8,5,22,15)           58.5438         estimate D2E/DX2                !
 ! D85   D(8,5,22,16)          107.2538         estimate D2E/DX2                !
 ! D86   D(8,5,22,17)          -72.0959         estimate D2E/DX2                !
 ! D87   D(9,6,22,1)           158.0393         estimate D2E/DX2                !
 ! D88   D(9,6,22,4)          -157.997          estimate D2E/DX2                !
 ! D89   D(9,6,22,13)          -52.2016         estimate D2E/DX2                !
 ! D90   D(9,6,22,14)          -26.4963         estimate D2E/DX2                !
 ! D91   D(9,6,22,15)           14.3092         estimate D2E/DX2                !
 ! D92   D(9,6,22,16)           54.5165         estimate D2E/DX2                !
 ! D93   D(9,6,22,17)           73.5241         estimate D2E/DX2                !
 ! D94   D(2,11,23,16)         -64.6574         estimate D2E/DX2                !
 ! D95   D(2,11,23,24)          58.6768         estimate D2E/DX2                !
 ! D96   D(2,11,23,25)         173.926          estimate D2E/DX2                !
 ! D97   D(26,11,23,16)        172.0838         estimate D2E/DX2                !
 ! D98   D(26,11,23,24)        -64.582          estimate D2E/DX2                !
 ! D99   D(26,11,23,25)         50.6671         estimate D2E/DX2                !
 ! D100  D(30,11,23,16)         53.547          estimate D2E/DX2                !
 ! D101  D(30,11,23,24)        176.8811         estimate D2E/DX2                !
 ! D102  D(30,11,23,25)        -67.8697         estimate D2E/DX2                !
 ! D103  D(2,11,26,27)         174.2435         estimate D2E/DX2                !
 ! D104  D(2,11,26,28)         -64.4279         estimate D2E/DX2                !
 ! D105  D(2,11,26,29)          56.0181         estimate D2E/DX2                !
 ! D106  D(23,11,26,27)        -60.8918         estimate D2E/DX2                !
 ! D107  D(23,11,26,28)         60.4367         estimate D2E/DX2                !
 ! D108  D(23,11,26,29)       -179.1173         estimate D2E/DX2                !
 ! D109  D(30,11,26,27)         57.9317         estimate D2E/DX2                !
 ! D110  D(30,11,26,28)        179.2603         estimate D2E/DX2                !
 ! D111  D(30,11,26,29)        -60.2937         estimate D2E/DX2                !
 ! D112  D(2,11,30,1)           23.3329         estimate D2E/DX2                !
 ! D113  D(2,11,30,31)        -162.8517         estimate D2E/DX2                !
 ! D114  D(23,11,30,1)         -99.2945         estimate D2E/DX2                !
 ! D115  D(23,11,30,31)         74.5209         estimate D2E/DX2                !
 ! D116  D(26,11,30,1)         142.5192         estimate D2E/DX2                !
 ! D117  D(26,11,30,31)        -43.6654         estimate D2E/DX2                !
 ! D118  D(17,13,14,15)         -0.1272         estimate D2E/DX2                !
 ! D119  D(17,13,14,19)       -179.8094         estimate D2E/DX2                !
 ! D120  D(18,13,14,15)        179.8156         estimate D2E/DX2                !
 ! D121  D(18,13,14,19)          0.1333         estimate D2E/DX2                !
 ! D122  D(14,13,17,16)          1.5803         estimate D2E/DX2                !
 ! D123  D(14,13,17,21)        179.1434         estimate D2E/DX2                !
 ! D124  D(18,13,17,16)       -178.3627         estimate D2E/DX2                !
 ! D125  D(18,13,17,21)         -0.7996         estimate D2E/DX2                !
 ! D126  D(18,13,22,1)          56.7324         estimate D2E/DX2                !
 ! D127  D(18,13,22,3)         116.6742         estimate D2E/DX2                !
 ! D128  D(18,13,22,4)          10.6513         estimate D2E/DX2                !
 ! D129  D(18,13,22,5)         -35.4538         estimate D2E/DX2                !
 ! D130  D(18,13,22,6)         -83.2994         estimate D2E/DX2                !
 ! D131  D(18,13,22,15)       -157.9175         estimate D2E/DX2                !
 ! D132  D(18,13,22,16)        157.3445         estimate D2E/DX2                !
 ! D133  D(13,14,15,16)         -1.3752         estimate D2E/DX2                !
 ! D134  D(13,14,15,20)       -178.6216         estimate D2E/DX2                !
 ! D135  D(19,14,15,16)        178.3079         estimate D2E/DX2                !
 ! D136  D(19,14,15,20)          1.0615         estimate D2E/DX2                !
 ! D137  D(19,14,22,3)         -81.8448         estimate D2E/DX2                !
 ! D138  D(19,14,22,4)          44.8132         estimate D2E/DX2                !
 ! D139  D(19,14,22,5)           3.5339         estimate D2E/DX2                !
 ! D140  D(19,14,22,6)         -41.2479         estimate D2E/DX2                !
 ! D141  D(19,14,22,16)       -157.5671         estimate D2E/DX2                !
 ! D142  D(19,14,22,17)        158.1076         estimate D2E/DX2                !
 ! D143  D(14,15,16,17)          2.3279         estimate D2E/DX2                !
 ! D144  D(14,15,16,23)       -172.8072         estimate D2E/DX2                !
 ! D145  D(20,15,16,17)        179.5915         estimate D2E/DX2                !
 ! D146  D(20,15,16,23)          4.4564         estimate D2E/DX2                !
 ! D147  D(20,15,22,1)         -67.3338         estimate D2E/DX2                !
 ! D148  D(20,15,22,3)         -37.4717         estimate D2E/DX2                !
 ! D149  D(20,15,22,5)          40.6428         estimate D2E/DX2                !
 ! D150  D(20,15,22,6)           4.9735         estimate D2E/DX2                !
 ! D151  D(20,15,22,13)        158.5456         estimate D2E/DX2                !
 ! D152  D(20,15,22,17)       -158.3082         estimate D2E/DX2                !
 ! D153  D(15,16,17,13)         -2.4093         estimate D2E/DX2                !
 ! D154  D(15,16,17,21)       -179.9956         estimate D2E/DX2                !
 ! D155  D(23,16,17,13)        172.7211         estimate D2E/DX2                !
 ! D156  D(23,16,17,21)         -4.8651         estimate D2E/DX2                !
 ! D157  D(23,16,22,1)         -29.3164         estimate D2E/DX2                !
 ! D158  D(23,16,22,3)          11.7485         estimate D2E/DX2                !
 ! D159  D(23,16,22,4)         -52.8558         estimate D2E/DX2                !
 ! D160  D(23,16,22,5)          58.4735         estimate D2E/DX2                !
 ! D161  D(23,16,22,6)          49.2035         estimate D2E/DX2                !
 ! D162  D(23,16,22,13)       -158.3529         estimate D2E/DX2                !
 ! D163  D(23,16,22,14)        158.4805         estimate D2E/DX2                !
 ! D164  D(15,16,23,11)        100.429          estimate D2E/DX2                !
 ! D165  D(15,16,23,24)        -21.8651         estimate D2E/DX2                !
 ! D166  D(15,16,23,25)       -140.5211         estimate D2E/DX2                !
 ! D167  D(17,16,23,11)        -73.8008         estimate D2E/DX2                !
 ! D168  D(17,16,23,24)        163.905          estimate D2E/DX2                !
 ! D169  D(17,16,23,25)         45.2491         estimate D2E/DX2                !
 ! D170  D(22,16,23,11)         14.3123         estimate D2E/DX2                !
 ! D171  D(22,16,23,24)       -107.9819         estimate D2E/DX2                !
 ! D172  D(22,16,23,25)        133.3622         estimate D2E/DX2                !
 ! D173  D(21,17,22,1)          15.2904         estimate D2E/DX2                !
 ! D174  D(21,17,22,3)          57.7253         estimate D2E/DX2                !
 ! D175  D(21,17,22,4)         -27.4945         estimate D2E/DX2                !
 ! D176  D(21,17,22,5)         -62.0229         estimate D2E/DX2                !
 ! D177  D(21,17,22,6)          93.4355         estimate D2E/DX2                !
 ! D178  D(21,17,22,14)       -158.421          estimate D2E/DX2                !
 ! D179  D(21,17,22,15)        157.6703         estimate D2E/DX2                !
 ! D180  D(11,30,31,33)       -172.9369         estimate D2E/DX2                !
 ! D181  D(32,30,31,33)         11.2403         estimate D2E/DX2                !
 ! D182  D(1,30,32,34)         163.2775         estimate D2E/DX2                !
 ! D183  D(1,30,32,35)         -34.4646         estimate D2E/DX2                !
 ! D184  D(31,30,32,34)        -10.6617         estimate D2E/DX2                !
 ! D185  D(31,30,32,35)        151.5961         estimate D2E/DX2                !
 ! D186  D(30,31,33,34)         -9.4275         estimate D2E/DX2                !
 ! D187  D(30,31,33,36)        170.1898         estimate D2E/DX2                !
 ! D188  D(30,32,34,33)          8.5042         estimate D2E/DX2                !
 ! D189  D(30,32,34,39)        124.5897         estimate D2E/DX2                !
 ! D190  D(30,32,34,54)       -114.5822         estimate D2E/DX2                !
 ! D191  D(35,32,34,33)       -152.4458         estimate D2E/DX2                !
 ! D192  D(35,32,34,39)        -36.3604         estimate D2E/DX2                !
 ! D193  D(35,32,34,54)         84.4677         estimate D2E/DX2                !
 ! D194  D(30,32,35,37)         11.0768         estimate D2E/DX2                !
 ! D195  D(30,32,35,40)       -169.0456         estimate D2E/DX2                !
 ! D196  D(34,32,35,37)        171.5371         estimate D2E/DX2                !
 ! D197  D(34,32,35,40)         -8.5854         estimate D2E/DX2                !
 ! D198  D(31,33,34,32)          0.6651         estimate D2E/DX2                !
 ! D199  D(31,33,34,39)       -117.4169         estimate D2E/DX2                !
 ! D200  D(31,33,34,54)        125.2446         estimate D2E/DX2                !
 ! D201  D(36,33,34,32)       -178.9656         estimate D2E/DX2                !
 ! D202  D(36,33,34,39)         62.9524         estimate D2E/DX2                !
 ! D203  D(36,33,34,54)        -54.3862         estimate D2E/DX2                !
 ! D204  D(32,34,54,55)        -56.8423         estimate D2E/DX2                !
 ! D205  D(32,34,54,56)         60.4817         estimate D2E/DX2                !
 ! D206  D(32,34,54,57)       -179.3727         estimate D2E/DX2                !
 ! D207  D(33,34,54,55)       -179.4746         estimate D2E/DX2                !
 ! D208  D(33,34,54,56)        -62.1506         estimate D2E/DX2                !
 ! D209  D(33,34,54,57)         57.9949         estimate D2E/DX2                !
 ! D210  D(39,34,54,55)         64.5466         estimate D2E/DX2                !
 ! D211  D(39,34,54,56)       -178.1294         estimate D2E/DX2                !
 ! D212  D(39,34,54,57)        -57.9839         estimate D2E/DX2                !
 ! D213  D(32,35,37,38)          4.0617         estimate D2E/DX2                !
 ! D214  D(40,35,37,38)       -175.8091         estimate D2E/DX2                !
 ! D215  D(32,35,40,42)        161.1746         estimate D2E/DX2                !
 ! D216  D(37,35,40,42)        -18.9474         estimate D2E/DX2                !
 ! D217  D(35,37,38,1)         110.763          estimate D2E/DX2                !
 ! D218  D(35,40,42,41)        -59.9955         estimate D2E/DX2                !
 ! D219  D(35,40,42,43)         64.7888         estimate D2E/DX2                !
 ! D220  D(35,40,42,44)       -177.3271         estimate D2E/DX2                !
 ! D221  D(45,41,42,40)        -77.3461         estimate D2E/DX2                !
 ! D222  D(45,41,42,43)        156.8042         estimate D2E/DX2                !
 ! D223  D(45,41,42,44)         39.7712         estimate D2E/DX2                !
 ! D224  D(46,41,42,40)        162.6409         estimate D2E/DX2                !
 ! D225  D(46,41,42,43)         36.7912         estimate D2E/DX2                !
 ! D226  D(46,41,42,44)        -80.2418         estimate D2E/DX2                !
 ! D227  D(47,41,42,40)         38.99           estimate D2E/DX2                !
 ! D228  D(47,41,42,43)        -86.8597         estimate D2E/DX2                !
 ! D229  D(47,41,42,44)        156.1074         estimate D2E/DX2                !
 ! D230  D(40,42,43,48)       -148.6117         estimate D2E/DX2                !
 ! D231  D(40,42,43,49)         96.8192         estimate D2E/DX2                !
 ! D232  D(40,42,43,50)        -32.3562         estimate D2E/DX2                !
 ! D233  D(41,42,43,48)        -22.8698         estimate D2E/DX2                !
 ! D234  D(41,42,43,49)       -137.4389         estimate D2E/DX2                !
 ! D235  D(41,42,43,50)         93.3856         estimate D2E/DX2                !
 ! D236  D(44,42,43,48)         93.9351         estimate D2E/DX2                !
 ! D237  D(44,42,43,49)        -20.634          estimate D2E/DX2                !
 ! D238  D(44,42,43,50)       -149.8094         estimate D2E/DX2                !
 ! D239  D(40,42,44,51)        177.647          estimate D2E/DX2                !
 ! D240  D(40,42,44,52)         53.3637         estimate D2E/DX2                !
 ! D241  D(40,42,44,53)        -60.0976         estimate D2E/DX2                !
 ! D242  D(41,42,44,51)         57.2328         estimate D2E/DX2                !
 ! D243  D(41,42,44,52)        -67.0505         estimate D2E/DX2                !
 ! D244  D(41,42,44,53)        179.4881         estimate D2E/DX2                !
 ! D245  D(43,42,44,51)        -61.5148         estimate D2E/DX2                !
 ! D246  D(43,42,44,52)        174.2019         estimate D2E/DX2                !
 ! D247  D(43,42,44,53)         60.7405         estimate D2E/DX2                !
 --------------------------------------------------------------------------------
 Trust Radius=3.00D-01 FncErr=1.00D-07 GrdErr=1.00D-07 EigMax=2.50D+02 EigMin=1.00D-04
 Number of steps in this run=    342 maximum allowed number of steps=    342.
 GradGradGradGradGradGradGradGradGradGradGradGradGradGradGradGradGradGrad

 Leave Link  103 at Sun Sep 28 17:24:34 2025, MaxMem=   104857600 cpu:               0.0 elap:               0.1
 (Enter /home/echo/g16/l202.exe)
 Stoichiometry    C21H28FeN2O4Pd
 Framework group  C1[X(C21H28FeN2O4Pd)]
 Deg. of freedom   165
 Full point group                 C1      NOp   1
 Largest Abelian subgroup         C1      NOp   1
 Largest concise Abelian subgroup C1      NOp   1
                         Standard orientation:                         
 ---------------------------------------------------------------------
 Center     Atomic      Atomic             Coordinates (Angstroms)
 Number     Number       Type             X           Y           Z
 ---------------------------------------------------------------------
      1          6           0        0.660186   -1.309028   -0.570007
      2          6           0        2.216620   -0.135545   -2.230386
      3          6           0        1.869550   -1.303747   -1.363358
      4          6           0        0.787829   -2.433813    0.331197
      5          6           0        1.995570   -3.131563    0.041968
      6          6           0        2.676764   -2.426264   -0.998110
      7          1           0        0.036612   -2.724730    1.062518
      8          1           0        2.351720   -4.031536    0.540316
      9          1           0        3.656074   -2.673632   -1.405172
     10          1           0        3.284451   -0.132109   -2.510835
     11          7           0        1.859496    1.145090   -1.541339
     12          1           0        1.626404   -0.162030   -3.159119
     13          6           0        2.745713   -0.512145    2.540649
     14          6           0        3.948346   -1.000970    1.942522
     15          6           0        4.196837   -0.236289    0.763952
     16          6           0        3.129185    0.710740    0.608737
     17          6           0        2.253233    0.553212    1.736802
     18          1           0        2.283873   -0.887736    3.451566
     19          1           0        4.564672   -1.816786    2.315825
     20          1           0        5.025995   -0.375905    0.071553
     21          1           0        1.346178    1.126388    1.915657
     22         26           0        2.389735   -1.167312    0.585254
     23          6           0        2.906444    1.611260   -0.570608
     24          1           0        3.851979    1.746059   -1.126311
     25          1           0        2.571900    2.599834   -0.228067
     26          6           0        1.627701    2.221834   -2.527770
     27          1           0        1.269299    3.114449   -2.001570
     28          1           0        2.557480    2.450222   -3.079767
     29          1           0        0.853095    1.905030   -3.237151
     30         46           0        0.037878    0.766107   -0.489880
     31          8           0       -0.358029    2.727946   -0.271274
     32          7           0       -1.739005    0.591089    0.369795
     33          6           0       -1.391839    3.017997    0.491600
     34          6           0       -2.282340    1.826129    0.921657
     35          6           0       -2.457319   -0.477276    0.087827
     36          8           0       -1.656657    4.142133    0.860648
     37          8           0       -1.971512   -1.472590   -0.536012
     38          1           0       -0.663280   -1.207699   -0.714241
     39          1           0       -3.280458    2.013891    0.489439
     40          8           0       -3.808641   -0.456019    0.523575
     41          6           0       -4.606080   -1.133378   -1.642519
     42          6           0       -4.587175   -1.383139   -0.149014
     43          6           0       -4.161514   -2.806855    0.140394
     44          6           0       -6.006647   -1.216041    0.354020
     45          1           0       -5.309431   -0.271421   -1.807891
     46          1           0       -4.961109   -2.042497   -2.165875
     47          1           0       -3.584965   -0.819724   -1.964241
     48          1           0       -4.380956   -3.401629   -0.786329
     49          1           0       -4.788168   -3.253957    0.938379
     50          1           0       -3.078861   -2.901193    0.318258
     51          1           0       -6.720063   -1.897975   -0.165087
     52          1           0       -6.265936   -0.148033    0.233210
     53          1           0       -5.976157   -1.411427    1.446287
     54          6           0       -2.413029    1.786784    2.435518
     55          1           0       -3.045862    0.922403    2.730853
     56          1           0       -1.391960    1.630534    2.864020
     57          1           0       -2.840993    2.743947    2.806529
 ---------------------------------------------------------------------
 Rotational constants (GHZ):           0.2351118           0.1192389           0.1003988
 Leave Link  202 at Sun Sep 28 17:24:34 2025, MaxMem=   104857600 cpu:               0.0 elap:               0.0
 (Enter /home/echo/g16/l301.exe)
 Standard basis: STO-3G (5D, 7F)
 Ernie: Thresh=  0.10000D-02 Tol=  0.10000D-05 Strict=F.
 There are   211 symmetry adapted cartesian basis functions of A   symmetry.
 There are   208 symmetry adapted basis functions of A   symmetry.
   208 basis functions,   633 primitive gaussians,   211 cartesian basis functions
   136 alpha electrons      136 beta electrons
       nuclear repulsion energy      5038.8936786777 Hartrees.
 IExCor=    0 DFT=F Ex=HF Corr=None ExCW=0 ScaHFX=  1.000000
 ScaDFX=  1.000000  1.000000  1.000000  1.000000 ScalE2=  1.000000  1.000000
 IRadAn=      5 IRanWt=     -1 IRanGd=            0 ICorTp=0 IEmpDi=  4
 NAtoms=   57 NActive=   57 NUniq=   57 SFac= 1.00D+00 NAtFMM=   60 NAOKFM=F Big=F
 Integral buffers will be    131072 words long.
 Raffenetti 1 integral format.
 Two-electron integral symmetry is turned on.
 Leave Link  301 at Sun Sep 28 17:24:35 2025, MaxMem=   104857600 cpu:               0.0 elap:               0.0
 (Enter /home/echo/g16/l402.exe)
 External calculation of energy and first derivatives.
 Running external command "./xtb.sh R"
         input file       "/home/echo/scratch/Gau-14860.EIn"
         output file      "/home/echo/scratch/Gau-14860.EOu"
         message file     "/home/echo/scratch/Gau-14860.EMs"
         fchk file        "/home/echo/scratch/Gau-14860.EFC"
         mat. el file     "/home/echo/scratch/Gau-14860.EUF"
Generating mol.tmp
Generating mol.xyz via genxyz
Running: xtb mol.xyz --chrg 0 --uhf 0 --gfn2 --grad > xtbout
xtb running finished!
Extracting data from xtb outputs via extderi
 Recovered energy= -89.1281915790     dipole=      0.000000000000      0.000000000000      0.000000000000
 Energy=    -89.1281916     NIter=   0.
 Dipole moment=       0.000000       0.000000       0.000000
 Leave Link  402 at Sun Sep 28 17:24:36 2025, MaxMem=   104857600 cpu:               0.0 elap:               0.8
 (Enter /home/echo/g16/l601.exe)
 Leave Link  601 at Sun Sep 28 17:24:36 2025, MaxMem=   104857600 cpu:               0.0 elap:               0.0
 (Enter /home/echo/g16/l716.exe)
 Dipole        = 0.00000000D+00 0.00000000D+00 0.00000000D+00
 ***** Axes restored to original set *****
 -------------------------------------------------------------------
 Center     Atomic                   Forces (Hartrees/Bohr)
 Number     Number              X              Y              Z
 -------------------------------------------------------------------
      1        6           0.005651921   -0.006807808   -0.006820159
      2        6          -0.006210389   -0.002302512   -0.003313544
      3        6           0.007881204   -0.011610295    0.000868365
      4        6          -0.010333864   -0.000587384    0.005200574
      5        6          -0.008871041   -0.002077774   -0.006022976
      6        6          -0.001286428   -0.006735317   -0.010178482
      7        1          -0.008350769    0.001497281    0.006640417
      8        1          -0.006362179    0.006788575   -0.005674790
      9        1           0.005006961    0.001169015   -0.010637509
     10        1           0.003858580   -0.001612744   -0.002227802
     11        7           0.005752727   -0.004560065    0.000222109
     12        1           0.000949787   -0.003099615    0.001174498
     13        6          -0.001725862    0.009463322    0.004406755
     14        6           0.000007700    0.010004025   -0.004878880
     15        6           0.010471352    0.004958450   -0.004847403
     16        6           0.012272527   -0.003551999    0.007353063
     17        6           0.007957702    0.005628200    0.012728805
     18        1          -0.008487904    0.006370969    0.004610894
     19        1          -0.004570285    0.006369233   -0.008302621
     20        1           0.006198411   -0.002445666   -0.009963327
     21        1          -0.000430556   -0.000639274    0.003340015
     22       26          -0.017620731    0.023693181   -0.014682591
     23        6           0.000612029    0.004877719    0.002685754
     24        1           0.003137352   -0.001445085   -0.000755565
     25        1           0.002642916   -0.001124344    0.001663110
     26        6           0.005004112   -0.004928964    0.002810896
     27        1           0.000337253    0.001237556    0.004285326
     28        1           0.003295909    0.000144398   -0.003912661
     29        1          -0.001898328   -0.002616098   -0.000051484
     30       46           0.007987331   -0.021643180    0.030914121
     31        8           0.007647401   -0.003975651   -0.028999049
     32        7           0.017613333    0.005687670    0.004873047
     33        6          -0.010770407    0.000955622    0.025325505
     34        6           0.003887523    0.010239970   -0.000188015
     35        6          -0.005963540   -0.007389223   -0.033776372
     36        8          -0.000399026    0.001207591    0.001350820
     37        8          -0.002423443    0.001464488   -0.021461402
     38        1          -0.018940069   -0.010417478    0.017596259
     39        1           0.001379284   -0.000411247    0.001062385
     40        8          -0.043592916   -0.018103429    0.033653852
     41        6          -0.019606011    0.014776465   -0.007757146
     42        6           0.028468570    0.014978520    0.004779883
     43        6           0.026962614    0.010487690    0.023226299
     44        6           0.003216789   -0.010342881   -0.019202276
     45        1           0.002968670   -0.002017420    0.020938261
     46        1          -0.016134152   -0.003363539   -0.007261161
     47        1           0.016444883    0.011630840   -0.005096054
     48        1          -0.002103316   -0.018020907   -0.005926830
     49        1          -0.013333745   -0.002830612    0.008012339
     50        1           0.011883648    0.003388268   -0.010883203
     51        1          -0.015132879   -0.013536798   -0.004090881
     52        1           0.012348558    0.002692927    0.003972241
     53        1           0.001221007    0.014109542   -0.000760171
     54        6           0.004241698   -0.015176764    0.002693034
     55        1          -0.014102904   -0.000285761   -0.003249010
     56        1           0.005042259    0.009274190   -0.011474407
     57        1           0.006298733    0.000564123    0.016007144
 -------------------------------------------------------------------
 Cartesian Forces:  Max     0.043592916 RMS     0.011019761
 Leave Link  716 at Sun Sep 28 17:24:36 2025, MaxMem=   104857600 cpu:               0.1 elap:               0.1
 (Enter /home/echo/g16/l103.exe)

 GradGradGradGradGradGradGradGradGradGradGradGradGradGradGradGradGradGrad
 Berny optimization.
 FormGI is forming the generalized inverse of G from B-inverse, IUseBI=4.
 Internal  Forces:  Max     0.070764755 RMS     0.006783438
 Search for a local minimum.
 Step number   1 out of a maximum of  342
 All quantities printed in internal units (Hartrees-Bohrs-Radians)
 RMS Force = .65913D-02 SwitMx=.10000D-02 MixMth= 1
 Mixed Optimization -- RFO/linear search
 Second derivative matrix not updated -- first step.
 ITU=  0
     Eigenvalues ---    0.00354   0.00501   0.00514   0.00565   0.00576
     Eigenvalues ---    0.00582   0.00653   0.00847   0.00868   0.00984
     Eigenvalues ---    0.01130   0.01374   0.01427   0.01652   0.01891
     Eigenvalues ---    0.02149   0.02294   0.02723   0.02761   0.02832
     Eigenvalues ---    0.02988   0.03052   0.03118   0.03266   0.03358
     Eigenvalues ---    0.03375   0.03405   0.03461   0.03609   0.03675
     Eigenvalues ---    0.03748   0.03849   0.03895   0.03963   0.04055
     Eigenvalues ---    0.04180   0.04239   0.04383   0.04453   0.04647
     Eigenvalues ---    0.04760   0.04784   0.05059   0.05148   0.05162
     Eigenvalues ---    0.05239   0.05257   0.05298   0.05593   0.05668
     Eigenvalues ---    0.05766   0.05778   0.05848   0.05930   0.06044
     Eigenvalues ---    0.06072   0.06113   0.06291   0.06407   0.06479
     Eigenvalues ---    0.06607   0.06693   0.06729   0.07231   0.07759
     Eigenvalues ---    0.08022   0.08400   0.08702   0.08767   0.08895
     Eigenvalues ---    0.09401   0.09889   0.10949   0.11762   0.13446
     Eigenvalues ---    0.14244   0.14571   0.14787   0.15776   0.15834
     Eigenvalues ---    0.15958   0.16000   0.16000   0.16000   0.16000
     Eigenvalues ---    0.16000   0.16000   0.16000   0.16000   0.16000
     Eigenvalues ---    0.16000   0.16000   0.16000   0.16000   0.16000
     Eigenvalues ---    0.16000   0.16002   0.16359   0.17718   0.19296
     Eigenvalues ---    0.20164   0.21886   0.23303   0.24066   0.25000
     Eigenvalues ---    0.25000   0.25000   0.25226   0.27116   0.27159
     Eigenvalues ---    0.27955   0.28270   0.28688   0.29699   0.30366
     Eigenvalues ---    0.30670   0.30833   0.30916   0.30961   0.31089
     Eigenvalues ---    0.31279   0.31467   0.31736   0.32014   0.32065
     Eigenvalues ---    0.32369   0.32469   0.32476   0.32598   0.32730
     Eigenvalues ---    0.32872   0.33030   0.33065   0.33119   0.33136
     Eigenvalues ---    0.33238   0.33269   0.33548   0.33602   0.33857
     Eigenvalues ---    0.33993   0.34006   0.34083   0.34359   0.34734
     Eigenvalues ---    0.34902   0.34928   0.34970   0.34990   0.35024
     Eigenvalues ---    0.35042   0.35070   0.35872   0.42460   0.48211
     Eigenvalues ---    0.55867   0.59164   0.70608   0.988141000.00000
     Eigenvalues --- 1000.000001000.000001000.000001000.000001000.00000
     Eigenvalues --- 1000.000001000.000001000.000001000.000001000.00000
     Eigenvalues --- 1000.000001000.000001000.000001000.000001000.00000
     Eigenvalues --- 1000.000001000.000001000.000001000.000001000.00000
     Eigenvalues --- 1000.000001000.000001000.000001000.000001000.00000
     Eigenvalues --- 1000.000001000.000001000.000001000.000001000.00000
     Eigenvalues --- 1000.000001000.000001000.000001000.000001000.00000
     Eigenvalues --- 1000.000001000.000001000.000001000.000001000.00000
     Eigenvalues --- 1000.000001000.000001000.000001000.000001000.00000
     Eigenvalues --- 1000.000001000.000001000.000001000.000001000.00000
     Eigenvalues --- 1000.000001000.000001000.000001000.000001000.00000
     Eigenvalues --- 1000.000001000.000001000.000001000.000001000.00000
     Eigenvalues --- 1000.000001000.000001000.000001000.000001000.00000
     Eigenvalues --- 1000.000001000.000001000.000001000.000001000.00000
     Eigenvalues --- 1000.000001000.000001000.000001000.000001000.00000
     Eigenvalues --- 1000.000001000.000001000.000001000.000001000.00000
     Eigenvalues --- 1000.000001000.000001000.000001000.000001000.00000
     Eigenvalues --- 1000.000001000.000001000.000001000.000001000.00000
     Eigenvalues --- 1000.000001000.000001000.000001000.000001000.00000
     Eigenvalues --- 1000.000001000.000001000.000001000.000001000.00000
     Eigenvalues --- 1000.000001000.000001000.000001000.000001000.00000
     Eigenvalues --- 1000.000001000.000001000.000001000.000001000.00000
     Eigenvalues --- 1000.000001000.000001000.000001000.000001000.00000
     Eigenvalues --- 1000.000001000.000001000.000001000.000001000.00000
     Eigenvalues --- 1000.000001000.000001000.000001000.000001000.00000
     Eigenvalues --- 1000.000001000.000001000.000001000.000001000.00000
     Eigenvalues --- 1000.000001000.000001000.000001000.000001000.00000
     Eigenvalues --- 1000.000001000.000001000.000001000.000001000.00000
     Eigenvalues --- 1000.000001000.000001000.000001000.000001000.00000
     Eigenvalues --- 1000.000001000.000001000.000001000.000001000.00000
     Eigenvalues --- 1000.000001000.000001000.000001000.000001000.00000
     Eigenvalues --- 1000.000001000.000001000.000001000.000001000.00000
     Eigenvalues --- 1000.000001000.000001000.000001000.000001000.00000
     Eigenvalues --- 1000.000001000.000001000.000001000.000001000.00000
     Eigenvalues --- 1000.000001000.000001000.000001000.000001000.00000
     Eigenvalues --- 1000.000001000.000001000.000001000.000001000.00000
     Eigenvalues --- 1000.000001000.000001000.000001000.000001000.00000
     Eigenvalues --- 1000.000001000.000001000.000001000.000001000.00000
     Eigenvalues --- 1000.000001000.000001000.000001000.000001000.00000
     Eigenvalues --- 1000.000001000.000001000.000001000.000001000.00000
     Eigenvalues --- 1000.000001000.000001000.000001000.000001000.00000
     Eigenvalues --- 1000.000001000.000001000.000001000.000001000.00000
     Eigenvalues --- 1000.000001000.000001000.000001000.000001000.00000
     Eigenvalues --- 1000.000001000.000001000.000001000.000001000.00000
     Eigenvalues --- 1000.000001000.000001000.000001000.000001000.00000
     Eigenvalues --- 1000.000001000.000001000.000001000.000001000.00000
     Eigenvalues --- 1000.000001000.000001000.000001000.000001000.00000
     Eigenvalues --- 1000.000001000.000001000.000001000.000001000.00000
     Eigenvalues --- 1000.000001000.000001000.000001000.000001000.00000
     Eigenvalues --- 1000.000001000.000001000.000001000.000001000.00000
     Eigenvalues --- 1000.000001000.000001000.000001000.000001000.00000
     Eigenvalues --- 1000.000001000.000001000.000001000.000001000.00000
     Eigenvalues --- 1000.000001000.000001000.000001000.000001000.00000
     Eigenvalues --- 1000.000001000.000001000.000001000.000001000.00000
     Eigenvalues --- 1000.000001000.000001000.000001000.000001000.00000
     Eigenvalues --- 1000.000001000.000001000.000001000.000001000.00000
     Eigenvalues --- 1000.000001000.000001000.000001000.000001000.00000
     Eigenvalues --- 1000.000001000.000001000.000001000.000001000.00000
     Eigenvalues --- 1000.000001000.000001000.000001000.000001000.00000
     Eigenvalues --- 1000.000001000.000001000.000001000.000001000.00000
     Eigenvalues --- 1000.000001000.000001000.000001000.000001000.00000
     Eigenvalues --- 1000.000001000.000001000.000001000.000001000.00000
     Eigenvalues --- 1000.000001000.000001000.000001000.000001000.00000
     Eigenvalues --- 1000.000001000.000001000.000001000.00000
 RFO step:  Lambda=-6.53899497D-02 EMin= 3.53730645D-03
 Linear search not attempted -- first point.
 Maximum step size (   0.300) exceeded in Quadratic search.
    -- Step size scaled by   0.702
 Iteration  1 RMS(Cart)=  0.11621766 RMS(Int)=  0.00546781
 Iteration  2 RMS(Cart)=  0.01355874 RMS(Int)=  0.00012740
 Iteration  3 RMS(Cart)=  0.00015457 RMS(Int)=  0.00011857
 Iteration  4 RMS(Cart)=  0.00000003 RMS(Int)=  0.00011857
 Iteration  1 RMS(Cart)=  0.00000926 RMS(Int)=  0.00000127
 Iteration  2 RMS(Cart)=  0.00000137 RMS(Int)=  0.00000138
 Iteration  3 RMS(Cart)=  0.00000035 RMS(Int)=  0.00000144
 ITry= 1 IFail=0 DXMaxC= 7.35D-01 DCOld= 1.00D+10 DXMaxT= 3.00D-01 DXLimC= 3.00D+00 Rises=F
 Variable       Old X    -DE/DX   Delta X   Delta X   Delta X     New X
                                 (Linear)    (Quad)   (Total)
    R1        2.73325  -0.00720   0.00000  -0.01203  -0.01214   2.72111
    R2        2.73430  -0.01281   0.00000  -0.02626  -0.02619   2.70811
    R3        3.93955  -0.01993   0.00000  -0.06571  -0.06567   3.87387
    R4        4.09677  -0.02717   0.00000   0.00000   0.00000   4.09677
    R5        2.52307  -0.01264   0.00000   0.00000  -0.00000   2.52307
    R6        2.82632  -0.00793   0.00000  -0.01020  -0.01020   2.81611
    R7        2.08635  -0.00369   0.00000  -0.00652  -0.00652   2.07984
    R8        2.82977  -0.00896   0.00000  -0.01254  -0.01255   2.81722
    R9        2.08007  -0.00301   0.00000  -0.00526  -0.00526   2.07481
   R10        2.70240  -0.01161   0.00000  -0.02058  -0.02063   2.68177
   R11        3.82000  -0.01505   0.00000  -0.04362  -0.04364   3.77636
   R12        2.69188  -0.01164   0.00000  -0.02360  -0.02351   2.66837
   R13        2.05606  -0.01065   0.00000  -0.01798  -0.01798   2.03808
   R14        3.88874  -0.01168   0.00000  -0.03141  -0.03144   3.85730
   R15        2.70121  -0.01049   0.00000  -0.02031  -0.02030   2.68091
   R16        2.05724  -0.01088   0.00000  -0.01841  -0.01841   2.03883
   R17        3.92263  -0.00647   0.00000  -0.01545  -0.01545   3.90718
   R18        2.05793  -0.01181   0.00000  -0.02000  -0.02000   2.03793
   R19        3.86096  -0.00771   0.00000  -0.02214  -0.02207   3.83889
   R20        2.83820  -0.01433   0.00000  -0.03295  -0.03296   2.80524
   R21        2.79408  -0.00963   0.00000  -0.01637  -0.01637   2.77771
   R22        4.03866  -0.00982   0.00000   0.00000  -0.00000   4.03866
   R23        2.70107  -0.00959   0.00000  -0.01904  -0.01904   2.68203
   R24        2.68826  -0.01055   0.00000  -0.01823  -0.01825   2.67001
   R25        2.05636  -0.01157   0.00000  -0.01954  -0.01954   2.03682
   R26        3.95469  -0.01062   0.00000  -0.03377  -0.03376   3.92093
   R27        2.69610  -0.01152   0.00000  -0.02247  -0.02247   2.67363
   R28        2.05691  -0.01139   0.00000  -0.01926  -0.01926   2.03765
   R29        3.91821  -0.00976   0.00000  -0.02852  -0.02851   3.88971
   R30        2.71282  -0.01263   0.00000  -0.02520  -0.02525   2.68757
   R31        2.05834  -0.01198   0.00000  -0.02030  -0.02030   2.03804
   R32        3.85632  -0.01029   0.00000  -0.02915  -0.02907   3.82724
   R33        2.71532  -0.00832   0.00000  -0.01499  -0.01494   2.70037
   R34        3.81445  -0.01201   0.00000  -0.02264  -0.02272   3.79172
   R35        2.83547  -0.01595   0.00000  -0.02814  -0.02818   2.80730
   R36        2.05561  -0.00341   0.00000  -0.00576  -0.00576   2.04985
   R37        3.92085  -0.01159   0.00000  -0.03526  -0.03530   3.88555
   R38        2.08814  -0.00284   0.00000  -0.00502  -0.00502   2.08311
   R39        2.07572  -0.00255   0.00000  -0.00443  -0.00443   2.07129
   R40        2.07190  -0.00433   0.00000  -0.00749  -0.00749   2.06442
   R41        2.08843  -0.00501   0.00000  -0.00887  -0.00887   2.07955
   R42        2.07319  -0.00319   0.00000  -0.00552  -0.00552   2.06767
   R43        3.80457   0.00464   0.00000   0.00000   0.00000   3.80457
   R44        3.74480  -0.00221   0.00000   0.00000   0.00000   3.74480
   R45        2.48904  -0.02585   0.00000  -0.02655  -0.02654   2.46250
   R46        2.75478  -0.00886   0.00000  -0.01362  -0.01361   2.74118
   R47        2.49049  -0.02335   0.00000  -0.02483  -0.02476   2.46573
   R48        2.92663   0.00218   0.00000   0.00453   0.00455   2.93118
   R49        2.29118  -0.00109   0.00000  -0.00073  -0.00073   2.29045
   R50        2.08582  -0.00053   0.00000  -0.00094  -0.00094   2.08488
   R51        2.87239   0.00350   0.00000   0.00666   0.00666   2.87904
   R52        2.40213  -0.01071   0.00000  -0.00861  -0.00855   2.39358
   R53        2.68341  -0.02913   0.00000  -0.04173  -0.04173   2.64168
   R54        2.54475   0.01393   0.00000   0.00000  -0.00000   2.54475
   R55        2.61715   0.04104   0.00000   0.05261   0.05261   2.66976
   R56        2.86173   0.02504   0.00000   0.04692   0.04692   2.90865
   R57        2.12543  -0.01944   0.00000  -0.03626  -0.03626   2.08917
   R58        2.09277  -0.01652   0.00000  -0.02942  -0.02942   2.06336
   R59        2.10818  -0.01816   0.00000  -0.03306  -0.03306   2.07512
   R60        2.86087   0.02711   0.00000   0.05075   0.05075   2.91161
   R61        2.86333   0.01648   0.00000   0.03096   0.03096   2.89429
   R62        2.12183  -0.01809   0.00000  -0.03358  -0.03358   2.08824
   R63        2.09528  -0.01321   0.00000  -0.02361  -0.02361   2.07167
   R64        2.08099  -0.01453   0.00000  -0.02544  -0.02544   2.05556
   R65        2.10725  -0.02066   0.00000  -0.03756  -0.03756   2.06969
   R66        2.08938  -0.01018   0.00000  -0.01805  -0.01805   2.07133
   R67        2.09764  -0.01187   0.00000  -0.02129  -0.02129   2.07635
   R68        2.09994  -0.01410   0.00000  -0.02538  -0.02538   2.07456
[...]
 ! D112  D(2,11,30,1)            1.0004         -DE/DX =   -0.0002              !
 ! D113  D(2,11,30,31)         177.4268         -DE/DX =   -0.001               !
 ! D114  D(23,11,30,1)        -122.7776         -DE/DX =   -0.0004              !
 ! D115  D(23,11,30,31)         53.6489         -DE/DX =   -0.0012              !
 ! D116  D(26,11,30,1)         119.0474         -DE/DX =   -0.0001              !
 ! D117  D(26,11,30,31)        -64.5261         -DE/DX =   -0.0009              !
 ! D118  D(17,13,14,15)         -0.4261         -DE/DX =    0.0                 !
 ! D119  D(17,13,14,19)       -175.4509         -DE/DX =    0.0001              !
 ! D120  D(18,13,14,15)        175.78           -DE/DX =    0.0                 !
 ! D121  D(18,13,14,19)          0.7552         -DE/DX =    0.0                 !
 ! D122  D(14,13,17,16)          0.6649         -DE/DX =    0.0002              !
 ! D123  D(14,13,17,21)       -171.4239         -DE/DX =   -0.0001              !
 ! D124  D(18,13,17,16)       -175.3536         -DE/DX =    0.0002              !
 ! D125  D(18,13,17,21)         12.5576         -DE/DX =   -0.0001              !
 ! D126  D(18,13,22,1)          26.0775         -DE/DX =    0.0003              !
 ! D127  D(18,13,22,3)         -69.122          -DE/DX =   -0.0001              !
 ! D128  D(18,13,22,4)          -2.7124         -DE/DX =    0.0001              !
 ! D129  D(18,13,22,5)         -46.1451         -DE/DX =    0.0                 !
 ! D130  D(18,13,22,6)         -82.4896         -DE/DX =    0.0                 !
 ! D131  D(18,13,22,15)       -154.9027         -DE/DX =    0.0001              !
 ! D132  D(18,13,22,16)        160.5051         -DE/DX =   -0.0002              !
 ! D133  D(13,14,15,16)          0.013          -DE/DX =   -0.0003              !
 ! D134  D(13,14,15,20)       -175.7423         -DE/DX =    0.0002              !
 ! D135  D(19,14,15,16)        175.0966         -DE/DX =   -0.0003              !
 ! D136  D(19,14,15,20)         -0.6587         -DE/DX =    0.0001              !
 ! D137  D(19,14,22,3)         -53.0107         -DE/DX =    0.0001              !
 ! D138  D(19,14,22,4)          36.5924         -DE/DX =    0.0002              !
 ! D139  D(19,14,22,5)           8.1811         -DE/DX =    0.0                 !
 ! D140  D(19,14,22,6)         -33.9705         -DE/DX =    0.0                 !
 ! D141  D(19,14,22,16)       -156.9731         -DE/DX =   -0.0001              !
 ! D142  D(19,14,22,17)        158.0604         -DE/DX =   -0.0002              !
 ! D143  D(14,15,16,17)          0.4014         -DE/DX =    0.0004              !
 ! D144  D(14,15,16,23)       -160.3937         -DE/DX =    0.0008              !
 ! D145  D(20,15,16,17)        176.0897         -DE/DX =   -0.0001              !
 ! D146  D(20,15,16,23)         15.2946         -DE/DX =    0.0004              !
 ! D147  D(20,15,22,1)         -24.3856         -DE/DX =   -0.0003              !
 ! D148  D(20,15,22,3)         -16.4903         -DE/DX =    0.0002              !
 ! D149  D(20,15,22,5)          60.5077         -DE/DX =    0.0001              !
 ! D150  D(20,15,22,6)          23.343          -DE/DX =    0.0                 !
 ! D151  D(20,15,22,13)        156.7977         -DE/DX =    0.0                 !
 ! D152  D(20,15,22,17)       -158.7232         -DE/DX =    0.0                 !
 ! D153  D(15,16,17,13)         -0.6597         -DE/DX =   -0.0003              !
 ! D154  D(15,16,17,21)        171.551          -DE/DX =   -0.0001              !
 ! D155  D(23,16,17,13)        160.2357         -DE/DX =   -0.0006              !
 ! D156  D(23,16,17,21)        -27.5536         -DE/DX =   -0.0003              !
 ! D157  D(23,16,22,1)         -15.1004         -DE/DX =    0.0004              !
 ! D158  D(23,16,22,3)          28.1949         -DE/DX =    0.0004              !
 ! D159  D(23,16,22,4)         -70.1632         -DE/DX =    0.0004              !
 ! D160  D(23,16,22,5)         122.8715         -DE/DX =    0.0005              !
 ! D161  D(23,16,22,6)          76.1861         -DE/DX =    0.0003              !
 ! D162  D(23,16,22,13)       -157.095          -DE/DX =    0.0003              !
 ! D163  D(23,16,22,14)        157.9165         -DE/DX =    0.0004              !
 ! D164  D(15,16,23,11)         84.1827         -DE/DX =   -0.0008              !
 ! D165  D(15,16,23,24)        -37.1057         -DE/DX =   -0.0005              !
 ! D166  D(15,16,23,25)       -159.0346         -DE/DX =   -0.0004              !
 ! D167  D(17,16,23,11)        -73.6982         -DE/DX =   -0.0005              !
 ! D168  D(17,16,23,24)        165.0133         -DE/DX =   -0.0002              !
 ! D169  D(17,16,23,25)         43.0844         -DE/DX =   -0.0002              !
 ! D170  D(22,16,23,11)          5.8916         -DE/DX =   -0.0008              !
 ! D171  D(22,16,23,24)       -115.3968         -DE/DX =   -0.0005              !
 ! D172  D(22,16,23,25)        122.6743         -DE/DX =   -0.0005              !
 ! D173  D(21,17,22,1)           5.2505         -DE/DX =    0.0002              !
 ! D174  D(21,17,22,3)          61.5931         -DE/DX =   -0.0003              !
 ! D175  D(21,17,22,4)         -46.0836         -DE/DX =    0.0                 !
 ! D176  D(21,17,22,5)        -102.1303         -DE/DX =    0.0001              !
 ! D177  D(21,17,22,6)         162.5945         -DE/DX =    0.0001              !
 ! D178  D(21,17,22,14)       -158.5398         -DE/DX =   -0.0002              !
 ! D179  D(21,17,22,15)        156.3558         -DE/DX =    0.0                 !
 ! D180  D(11,30,31,33)       -162.9201         -DE/DX =    0.0003              !
 ! D181  D(32,30,31,33)         25.0092         -DE/DX =    0.0003              !
 ! D182  D(1,30,32,34)         139.5393         -DE/DX =   -0.0008              !
 ! D183  D(1,30,32,35)         -68.9461         -DE/DX =   -0.0022              !
 ! D184  D(31,30,32,34)        -35.6538         -DE/DX =   -0.0002              !
 ! D185  D(31,30,32,35)        115.8608         -DE/DX =   -0.0016              !
 ! D186  D(30,31,33,34)         -9.0929         -DE/DX =    0.0006              !
 ! D187  D(30,31,33,36)        169.3843         -DE/DX =    0.0009              !
 ! D188  D(30,32,34,33)         38.3682         -DE/DX =    0.0021              !
 ! D189  D(30,32,34,39)        158.7881         -DE/DX =    0.0016              !
 ! D190  D(30,32,34,54)        -78.7147         -DE/DX =    0.0014              !
 ! D191  D(35,32,34,33)       -104.5288         -DE/DX =    0.0004              !
 ! D192  D(35,32,34,39)         15.8911         -DE/DX =    0.0                 !
 ! D193  D(35,32,34,54)        138.3883         -DE/DX =   -0.0003              !
 ! D194  D(30,32,35,37)         28.8112         -DE/DX =   -0.0013              !
 ! D195  D(30,32,35,40)       -155.7771         -DE/DX =   -0.0011              !
 ! D196  D(34,32,35,37)        170.9782         -DE/DX =    0.0004              !
 ! D197  D(34,32,35,40)        -13.6101         -DE/DX =    0.0005              !
 ! D198  D(31,33,34,32)        -19.7681         -DE/DX =    0.0008              !
 ! D199  D(31,33,34,39)       -142.8611         -DE/DX =    0.0006              !
 ! D200  D(31,33,34,54)         94.0028         -DE/DX =    0.0005              !
 ! D201  D(36,33,34,32)        161.6719         -DE/DX =    0.0005              !
 ! D202  D(36,33,34,39)         38.5789         -DE/DX =    0.0003              !
 ! D203  D(36,33,34,54)        -84.5572         -DE/DX =    0.0002              !
 ! D204  D(32,34,54,55)        -84.6569         -DE/DX =    0.0004              !
 ! D205  D(32,34,54,56)         33.8309         -DE/DX =    0.0004              !
 ! D206  D(32,34,54,57)        155.0099         -DE/DX =    0.0004              !
 ! D207  D(33,34,54,55)        160.3843         -DE/DX =   -0.0006              !
 ! D208  D(33,34,54,56)        -81.1279         -DE/DX =   -0.0006              !
 ! D209  D(33,34,54,57)         40.0512         -DE/DX =   -0.0006              !
 ! D210  D(39,34,54,55)         38.8383         -DE/DX =    0.0001              !
 ! D211  D(39,34,54,56)        157.3261         -DE/DX =    0.0001              !
 ! D212  D(39,34,54,57)        -81.4948         -DE/DX =    0.0001              !
 ! D213  D(32,35,37,38)         15.1174         -DE/DX =   -0.0004              !
 ! D214  D(40,35,37,38)       -160.0332         -DE/DX =   -0.0005              !
 ! D215  D(32,35,40,42)       -179.7733         -DE/DX =    0.0                 !
 ! D216  D(37,35,40,42)         -4.5548         -DE/DX =    0.0                 !
 ! D217  D(35,37,38,1)          14.0088         -DE/DX =    0.0001              !
 ! D218  D(35,40,42,41)        -59.445          -DE/DX =    0.0                 !
 ! D219  D(35,40,42,43)         63.8529         -DE/DX =    0.0                 !
 ! D220  D(35,40,42,44)       -177.7248         -DE/DX =    0.0                 !
 ! D221  D(45,41,42,40)        -54.1136         -DE/DX =    0.0                 !
 ! D222  D(45,41,42,43)       -177.0037         -DE/DX =    0.0                 !
 ! D223  D(45,41,42,44)         60.0731         -DE/DX =    0.0                 !
 ! D224  D(46,41,42,40)       -174.0411         -DE/DX =    0.0                 !
 ! D225  D(46,41,42,43)         63.0688         -DE/DX =    0.0                 !
 ! D226  D(46,41,42,44)        -59.8545         -DE/DX =    0.0                 !
 ! D227  D(47,41,42,40)         65.8966         -DE/DX =    0.0                 !
 ! D228  D(47,41,42,43)        -56.9935         -DE/DX =    0.0                 !
 ! D229  D(47,41,42,44)       -179.9167         -DE/DX =    0.0                 !
 ! D230  D(40,42,43,48)        174.6598         -DE/DX =    0.0                 !
 ! D231  D(40,42,43,49)         54.7912         -DE/DX =    0.0                 !
 ! D232  D(40,42,43,50)        -65.2127         -DE/DX =    0.0                 !
 ! D233  D(41,42,43,48)        -62.5611         -DE/DX =    0.0                 !
 ! D234  D(41,42,43,49)        177.5703         -DE/DX =    0.0                 !
 ! D235  D(41,42,43,50)         57.5665         -DE/DX =    0.0                 !
 ! D236  D(44,42,43,48)         60.3377         -DE/DX =    0.0                 !
 ! D237  D(44,42,43,49)        -59.5309         -DE/DX =    0.0                 !
 ! D238  D(44,42,43,50)       -179.5348         -DE/DX =    0.0                 !
 ! D239  D(40,42,44,51)        179.5177         -DE/DX =    0.0                 !
 ! D240  D(40,42,44,52)         59.1719         -DE/DX =    0.0                 !
 ! D241  D(40,42,44,53)        -60.127          -DE/DX =    0.0                 !
 ! D242  D(41,42,44,51)         61.3165         -DE/DX =    0.0                 !
 ! D243  D(41,42,44,52)        -59.0294         -DE/DX =    0.0                 !
 ! D244  D(41,42,44,53)       -178.3283         -DE/DX =    0.0                 !
 ! D245  D(43,42,44,51)        -62.0348         -DE/DX =    0.0                 !
 ! D246  D(43,42,44,52)        177.6193         -DE/DX =    0.0                 !
 ! D247  D(43,42,44,53)         58.3205         -DE/DX =    0.0                 !
 --------------------------------------------------------------------------------
 Largest change from initial coordinates is atom   28       2.765 Angstoms.
 GradGradGradGradGradGradGradGradGradGradGradGradGradGradGradGradGradGrad

 Leave Link  103 at Sun Sep 28 17:25:26 2025, MaxMem=   104857600 cpu:               0.1 elap:               0.3
 (Enter /home/echo/g16/l202.exe)
 Stoichiometry    C21H28FeN2O4Pd
 Framework group  C1[X(C21H28FeN2O4Pd)]
 Deg. of freedom   165
 Full point group                 C1      NOp   1
 RotChk:  IX=2 Diff= 2.00D-15
 Largest Abelian subgroup         C1      NOp   1
 Largest concise Abelian subgroup C1      NOp   1
                         Standard orientation:                         
 ---------------------------------------------------------------------
 Center     Atomic      Atomic             Coordinates (Angstroms)
 Number     Number       Type             X           Y           Z
 ---------------------------------------------------------------------
      1          6           0        0.442766   -1.692845    0.237796
      2          6           0        2.147171   -1.617489   -1.679062
      3          6           0        1.690242   -2.056550   -0.342265
      4          6           0        0.748188   -1.480746    1.608851
      5          6           0        2.035815   -1.961259    1.894498
      6          6           0        2.630573   -2.324615    0.679854
      7          1           0        0.083565   -1.091372    2.349891
      8          1           0        2.511138   -1.925625    2.846146
      9          1           0        3.649597   -2.604940    0.547053
     10          1           0        3.236105   -1.600493   -1.626597
     11          7           0        1.661121   -0.246449   -1.945552
     12          1           0        1.837189   -2.272945   -2.497116
     13          6           0        2.663634    0.988635    1.807082
     14          6           0        3.706536    0.068164    1.613760
     15          6           0        3.964110   -0.024981    0.235239
     16          6           0        3.081701    0.837225   -0.424102
     17          6           0        2.271754    1.482091    0.549197
     18          1           0        2.226160    1.199593    2.754501
     19          1           0        4.168579   -0.524582    2.365981
     20          1           0        4.658932   -0.692439   -0.218978
     21          1           0        1.592996    2.289158    0.359666
     22         26           0        2.130615   -0.478392    0.651120
     23          6           0        2.735802    0.742815   -1.853407
     24          1           0        3.600696    0.446991   -2.461469
     25          1           0        2.348207    1.696851   -2.215589
     26          6           0        0.906675   -0.156263   -3.195051
     27          1           0        0.523948    0.861150   -3.312467
     28          1           0        1.524240   -0.406390   -4.069381
     29          1           0        0.055921   -0.845686   -3.149739
     30         46           0        0.099647    0.282977   -0.585776
     31          8           0       -0.367660    2.187753   -1.040525
     32          7           0       -1.501308    0.486560    0.564216
     33          6           0       -1.028238    2.755585   -0.104458
     34          6           0       -1.519510    1.825475    1.061580
     35          6           0       -2.444276   -0.313630    0.181395
     36          8           0       -1.266792    3.948390   -0.055812
     37          8           0       -2.133307   -1.413790   -0.388076
     38          1           0       -0.826487   -1.659301   -0.175128
     39          1           0       -2.511952    2.154330    1.390022
     40          8           0       -3.704494    0.017900    0.490880
     41          6           0       -4.862605   -0.973362   -1.410837
     42          6           0       -4.815560   -0.815907    0.109374
     43          6           0       -4.726669   -2.176079    0.803140
     44          6           0       -6.039797   -0.043343    0.603395
     45          1           0       -4.872100    0.006528   -1.884025
     46          1           0       -5.760256   -1.514098   -1.697874
     47          1           0       -3.991578   -1.524049   -1.756507
     48          1           0       -5.616710   -2.758540    0.581762
     49          1           0       -4.651087   -2.039717    1.879945
     50          1           0       -3.851376   -2.718122    0.455526
     51          1           0       -6.947590   -0.586115    0.356783
     52          1           0       -6.071838    0.937728    0.136997
     53          1           0       -5.984927    0.090361    1.680599
     54          6           0       -0.500917    1.840018    2.214562
     55          1           0       -0.972738    1.498197    3.133753
     56          1           0        0.308867    1.141662    1.944813
     57          1           0       -0.112316    2.842657    2.372369
 ---------------------------------------------------------------------
 Rotational constants (GHZ):           0.2896461           0.1240164           0.1158332
 Leave Link  202 at Sun Sep 28 17:25:26 2025, MaxMem=   104857600 cpu:               0.0 elap:               0.0
 (Enter /home/echo/g16/l601.exe)
 Leave Link  601 at Sun Sep 28 17:25:26 2025, MaxMem=   104857600 cpu:               0.0 elap:               0.0
 (Enter /home/echo/g16/l9999.exe)
 Unable to Open any file for archive entry.
 1\1\GINC-ECHO\FOpt\External='./xtb.sh'\ZDO\C21H28Fe1N2O4Pd1\ECHO\28-Se
 p-2025\0\\#p opt=(modredundant,nomicro) external='./xtb.sh'\\Generate 
 automatically by rxnb\\0,1\C,0.1275050662,1.0099343046,5.2516272856\C,
 -2.1289155363,1.5662853987,6.3397715405\C,-0.8068174555,0.902785147,6.
 3195739789\C,0.6819657276,-0.2936858954,5.1457541974\C,0.3158605137,-1
 .0638731443,6.2607644623\C,-0.6135557861,-0.3219881424,7.0003006838\H,
 1.3485732209,-0.6352444577,4.3832262976\H,0.596445172,-2.076383593,6.4
 308536121\H,-1.1747043539,-0.6816059335,7.8312138551\H,-2.7668290447,0
 .9318725267,6.9557301406\N,-2.6832480479,1.6128812667,4.9695318132\H,-
 2.1177432788,2.5768394561,6.7564009615\C,-1.5940570846,-2.2477786,4.24
 72459374\C,-1.8871071729,-2.3747440553,5.6148300276\C,-2.8477893484,-1
 .4061603053,5.9528784817\C,-3.1493420801,-0.6805249891,4.7955999988\C,
 -2.3787855308,-1.2044664658,3.7227977345\H,-0.8489640714,-2.8182905375
 ,3.7444134359\H,-1.4074427313,-3.0294680431,6.3017996277\H,-3.21675670
 65,-1.2192906838,6.9344761101\H,-2.486622739,-0.9394251223,2.690268960
 2\Fe,-1.2502213378,-0.6010647702,5.2181401406\C,-3.773972299,0.6541073
 528,4.7874709001\H,-4.5269904466,0.7544746604,5.5800514745\H,-4.238766
 4622,0.8515224936,3.8196983567\C,-3.0408905272,2.9702860807,4.55951385
 72\H,-3.3892723269,2.9538937047,3.52329147\H,-3.8307521149,3.398464635
 3,5.1929062486\H,-2.1512972871,3.6077220026,4.618163975\Pd,-1.15975608
 48,1.2280857412,3.5209511063\O,-2.1084283992,1.2466552457,1.7452765975
 \N,0.4211338706,1.1296703974,2.3301168062\C,-1.4131234258,0.6950312409
 ,0.8247979697\C,0.0699063215,0.3357411277,1.1957842086\C,1.1579280031,
 2.1862636788,2.4596925201\O,-1.8343121506,0.4165136452,-0.2829414407\O
 ,1.1673949166,2.8045966866,3.5772449186\H,0.6273039584,2.0081844349,4.
 5192806358\H,0.7113752706,0.5128663674,0.325092051\O,1.9491011356,2.52
 20123416,1.4324821499\C,1.9748245826,4.942661878,1.7155748969\C,2.8056
 701674,3.6787670616,1.4912729448\C,3.8596189393,3.5089034079,2.5865448
 753\C,3.4684169446,3.7141233466,0.1131634817\H,1.1988175721,5.01475017
 69,0.9561028903\H,2.613506574,5.8194943403,1.6538264394\H,1.5073900682
 ,4.9132680728,2.6964278719\H,4.5550497539,4.3431583742,2.5576083537\H,
 4.410033962,2.583143131,2.4321819108\H,3.3840715704,3.4760500966,3.563
 0484793\H,4.1392272489,4.5654266661,0.0438515296\H,2.7097120111,3.7927
 081784,-0.6609446143\H,4.0329945493,2.8000595965,-0.0511396904\C,0.155
 1072492,-1.1212061961,1.6827705162\H,1.1799458733,-1.4799432944,1.6093
 964405\H,-0.1544472139,-1.1312257824,2.7412088637\H,-0.4848191989,-1.7
 649842524,1.0850717227\\Version=ES64L-G16RevC.01\HF=-89.2295381\RMSD=0
 .000e+00\RMSF=6.110e-03\Dipole=0.,0.,0.\PG=C01 [X(C21H28Fe1N2O4Pd1)]\\
 @
 The archive entry for this job was punched.


 Standing in the middle of the road is very dangerous;
 you get knocked down by the traffic from both sides.
                                -- Margaret Thatcher
 Job cpu time:       0 days  0 hours  0 minutes 15.2 seconds.
 Elapsed time:       0 days  0 hours  0 minutes 46.6 seconds.
 File lengths (MBytes):  RWF=     15 Int=      0 D2E=      0 Chk=      6 Scr=      1
 Normal termination of Gaussian 16 at Sun Sep 28 17:25:27 2025.
