 Entering Gaussian System, Link 0=g16
 Input=2-modfreq.gjf
 Output=2-modfreq.log
 Initial command:
 /home/echo/g16/l1.exe "/home/echo/scratch/Gau-16281.inp" -scrdir="/home/echo/scratch/"
 Entering Link 1 = /home/echo/g16/l1.exe PID=     16285.
  
 Copyright (c) 1988-2019, Gaussian, Inc.  All Rights Reserved.
  
 This is part of the Gaussian(R) 16 program.  It is based on
 the Gaussian(R) 09 system (copyright 2009, Gaussian, Inc.),
 the Gaussian(R) 03 system (copyright 2003, Gaussian, Inc.),
 the Gaussian(R) 98 system (copyright 1998, Gaussian, Inc.),
 the Gaussian(R) 94 system (copyright 1995, Gaussian, Inc.),
 the Gaussian 92(TM) system (copyright 1992, Gaussian, Inc.),
 the Gaussian 90(TM) system (copyright 1990, Gaussian, Inc.),
 the Gaussian 88(TM) system (copyright 1988, Gaussian, Inc.),
 the Gaussian 86(TM) system (copyright 1986, Carnegie Mellon
 University), and the Gaussian 82(TM) system (copyright 1983,
 Carnegie Mellon University). Gaussian is a federally registered
 trademark of Gaussian, Inc.
  
 This software contains proprietary and confidential information,
 including trade secrets, belonging to Gaussian, Inc.
  
 This software is provided under written license and may be
 used, copied, transmitted, or stored only in accord with that
 written license.
  
 The following legend is applicable only to US Government
 contracts under FAR:
  
                    RESTRICTED RIGHTS LEGEND
  
 Use, reproduction and disclosure by the US Government is
 subject to restrictions as set forth in subparagraphs (a)
 and (c) of the Commercial Computer Software - Restricted
 Rights clause in FAR 52.227-19.
  
 Gaussian, Inc.
 340 Quinnipiac St., Bldg. 40, Wallingford CT 06492
  
  
 ---------------------------------------------------------------
 Warning -- This program may not be used in any manner that
 competes with the business of Gaussian, Inc. or will provide
 assistance to any competitor of Gaussian, Inc.  The licensee
 of this program is prohibited from giving any competitor of
 Gaussian, Inc. access to this program.  By using this program,
 the user acknowledges that Gaussian, Inc. is engaged in the
 business of creating and licensing software in the field of
 computational chemistry and represents and warrants to the
 licensee that it is not a competitor of Gaussian, Inc. and that
 it will not use this program in any manner prohibited above.
 ---------------------------------------------------------------
  

 Cite this work as:
 Gaussian 16, Revision C.01,
 M. J. Frisch, G. W. Trucks, H. B. Schlegel, G. E. Scuseria, 
 M. A. Robb, J. R. Cheeseman, G. Scalmani, V. Barone, 
 G. A. Petersson, H. Nakatsuji, X. Li, M. Caricato, A. V. Marenich, 
 J. Bloino, B. G. Janesko, R. Gomperts, B. Mennucci, H. P. Hratchian, 
 J. V. Ortiz, A. F. Izmaylov, J. L. Sonnenberg, D. Williams-Young, 
 F. Ding, F. Lipparini, F. Egidi, J. Goings, B. Peng, A. Petrone, 
 T. Henderson, D. Ranasinghe, V. G. Zakrzewski, J. Gao, N. Rega, 
 G. Zheng, W. Liang, M. Hada, M. Ehara, K. Toyota, R. Fukuda, 
 J. Hasegawa, M. Ishida, T. Nakajima, Y. Honda, O. Kitao, H. Nakai, 
 T. Vreven, K. Throssell, J. A. Montgomery, Jr., J. E. Peralta, 
 F. Ogliaro, M. J. Bearpark, J. J. Heyd, E. N. Brothers, K. N. Kudin, 
 V. N. Staroverov, T. A. Keith, R. Kobayashi, J. Normand, 
 K. Raghavachari, A. P. Rendell, J. C. Burant, S. S. Iyengar, 
 J. Tomasi, M. Cossi, J. M. Millam, M. Klene, C. Adamo, R. Cammi, 
 J. W. Ochterski, R. L. Martin, K. Morokuma, O. Farkas, 
 J. B. Foresman, and D. J. Fox, Gaussian, Inc., Wallingford CT, 2019.
 
 ******************************************
 Gaussian 16:  ES64L-G16RevC.01  3-Jul-2019
                28-Sep-2025 
 ******************************************
 %chk=2-modfreq.chk
 ---------------------------
 #p freq external='./xtb.sh'
 ---------------------------
 1/10=4,18=10,30=1,38=1/1,3;
 2/12=2,17=6,18=5,40=1/2;
 3/11=9,25=1,30=1,41=9900000,43=2,71=2,140=1/1;
 4/20=17,22=2,24=3,113=1,114=1/2;
 6/7=2,8=2,9=2,10=2/1;
 7/8=1,25=1,44=-1/16;
 1/10=4,18=10,30=1/3;
 99//99;
 Leave Link    1 at Sun Sep 28 17:25:27 2025, MaxMem=           0 cpu:               0.0 elap:               0.1
 (Enter /home/echo/g16/l101.exe)
 ------------------------------
 Generate automatically by rxnb
 ------------------------------
 Symbolic Z-matrix:
 Charge =  0 Multiplicity = 1
 C                     0.44277  -1.69284   0.2378 
 C                     2.14717  -1.61749  -1.67906 
 C                     1.69024  -2.05655  -0.34226 
 C                     0.74819  -1.48075   1.60885 
 C                     2.03581  -1.96126   1.8945 
 C                     2.63057  -2.32462   0.67985 
 H                     0.08357  -1.09137   2.34989 
 H                     2.51114  -1.92562   2.84615 
 H                     3.6496   -2.60494   0.54705 
 H                     3.2361   -1.60049  -1.6266 
 N                     1.66112  -0.24645  -1.94555 
 H                     1.83719  -2.27294  -2.49712 
 C                     2.66363   0.98864   1.80708 
 C                     3.70654   0.06816   1.61376 
 C                     3.96411  -0.02498   0.23524 
 C                     3.0817    0.83722  -0.4241 
 C                     2.27175   1.48209   0.5492 
 H                     2.22616   1.19959   2.7545 
 H                     4.16858  -0.52458   2.36598 
 H                     4.65893  -0.69244  -0.21898 
 H                     1.593     2.28916   0.35967 
 Fe                    2.13062  -0.47839   0.65112 
 C                     2.7358    0.74282  -1.85341 
 H                     3.6007    0.44699  -2.46147 
 H                     2.34821   1.69685  -2.21559 
 C                     0.90668  -0.15626  -3.19505 
 H                     0.52395   0.86115  -3.31247 
 H                     1.52424  -0.40639  -4.06938 
 H                     0.05592  -0.84569  -3.14974 
 Pd                    0.09965   0.28298  -0.58578 
 O                    -0.36766   2.18775  -1.04052 
 N                    -1.50131   0.48656   0.56422 
 C                    -1.02824   2.75558  -0.10446 
 C                    -1.51951   1.82547   1.06158 
 C                    -2.44428  -0.31363   0.1814 
 O                    -1.26679   3.94839  -0.05581 
 O                    -2.13331  -1.41379  -0.38808 
 H                    -0.82649  -1.6593   -0.17513 
 H                    -2.51195   2.15433   1.39002 
 O                    -3.70449   0.0179    0.49088 
 C                    -4.86261  -0.97336  -1.41084 
 C                    -4.81556  -0.81591   0.10937 
 C                    -4.72667  -2.17608   0.80314 
 C                    -6.0398   -0.04334   0.6034 
 H                    -4.8721    0.00653  -1.88403 
 H                    -5.76026  -1.5141   -1.69787 
 H                    -3.99158  -1.52405  -1.75651 
 H                    -5.61671  -2.75854   0.58176 
 H                    -4.65109  -2.03972   1.87994 
 H                    -3.85138  -2.71812   0.45553 
 H                    -6.94759  -0.58612   0.35678 
 H                    -6.07184   0.93773   0.137 
 H                    -5.98493   0.09036   1.6806 
 C                    -0.50092   1.84002   2.21456 
 H                    -0.97274   1.4982    3.13375 
 H                     0.30887   1.14166   1.94481 
 H                    -0.11232   2.84266   2.37237 
 
 ITRead=  0  0  0  0  0  0  0  0  0  0  0  0  0  0  0  0  0  0  0  0
 ITRead=  0  0  0  0  0  0  0  0  0  0  0  0  0  0  0  0  0  0  0  0
 ITRead=  0  0  0  0  0  0  0  0  0  0  0  0  0  0  0  0  0
 MicOpt= -1 -1 -1 -1 -1 -1 -1 -1 -1 -1 -1 -1 -1 -1 -1 -1 -1 -1 -1 -1
 MicOpt= -1 -1 -1 -1 -1 -1 -1 -1 -1 -1 -1 -1 -1 -1 -1 -1 -1 -1 -1 -1
 MicOpt= -1 -1 -1 -1 -1 -1 -1 -1 -1 -1 -1 -1 -1 -1 -1 -1 -1
 NAtoms=     57 NQM=       57 NQMF=       0 NMMI=      0 NMMIF=      0
                NMic=       0 NMicF=      0.
                    Isotopes and Nuclear Properties:
 (Nuclear quadrupole moments (NQMom) in fm**2, nuclear magnetic moments (NMagM)
  in nuclear magnetons)

  Atom         1           2           3           4           5           6           7           8           9          10
 IAtWgt=          12          12          12          12          12          12           1           1           1           1
 AtmWgt=  12.0000000  12.0000000  12.0000000  12.0000000  12.0000000  12.0000000   1.0078250   1.0078250   1.0078250   1.0078250
 NucSpn=           0           0           0           0           0           0           1           1           1           1
 AtZEff=  -0.0000000  -0.0000000  -0.0000000  -0.0000000  -0.0000000  -0.0000000  -0.0000000  -0.0000000  -0.0000000  -0.0000000
 NQMom=    0.0000000   0.0000000   0.0000000   0.0000000   0.0000000   0.0000000   0.0000000   0.0000000   0.0000000   0.0000000
 NMagM=    0.0000000   0.0000000   0.0000000   0.0000000   0.0000000   0.0000000   2.7928460   2.7928460   2.7928460   2.7928460
 AtZNuc=   6.0000000   6.0000000   6.0000000   6.0000000   6.0000000   6.0000000   1.0000000   1.0000000   1.0000000   1.0000000

  Atom        11          12          13          14          15          16          17          18          19          20
 IAtWgt=          14           1          12          12          12          12          12           1           1           1
 AtmWgt=  14.0030740   1.0078250  12.0000000  12.0000000  12.0000000  12.0000000  12.0000000   1.0078250   1.0078250   1.0078250
 NucSpn=           2           1           0           0           0           0           0           1           1           1
 AtZEff=  -0.0000000  -0.0000000  -0.0000000  -0.0000000  -0.0000000  -0.0000000  -0.0000000  -0.0000000  -0.0000000  -0.0000000
 NQMom=    2.0440000   0.0000000   0.0000000   0.0000000   0.0000000   0.0000000   0.0000000   0.0000000   0.0000000   0.0000000
 NMagM=    0.4037610   2.7928460   0.0000000   0.0000000   0.0000000   0.0000000   0.0000000   2.7928460   2.7928460   2.7928460
 AtZNuc=   7.0000000   1.0000000   6.0000000   6.0000000   6.0000000   6.0000000   6.0000000   1.0000000   1.0000000   1.0000000

  Atom        21          22          23          24          25          26          27          28          29          30
 IAtWgt=           1          56          12           1           1          12           1           1           1         106
 AtmWgt=   1.0078250  55.9349393  12.0000000   1.0078250   1.0078250  12.0000000   1.0078250   1.0078250   1.0078250 105.9032000
 NucSpn=           1           0           0           1           1           0           1           1           1           0
 AtZEff=  -0.0000000  -0.0000000  -0.0000000  -0.0000000  -0.0000000  -0.0000000  -0.0000000  -0.0000000  -0.0000000  -0.0000000
 NQMom=    0.0000000   0.0000000   0.0000000   0.0000000   0.0000000   0.0000000   0.0000000   0.0000000   0.0000000   0.0000000
 NMagM=    2.7928460   0.0000000   0.0000000   2.7928460   2.7928460   0.0000000   2.7928460   2.7928460   2.7928460   0.0000000
 AtZNuc=   1.0000000  26.0000000   6.0000000   1.0000000   1.0000000   6.0000000   1.0000000   1.0000000   1.0000000  46.0000000

  Atom        31          32          33          34          35          36          37          38          39          40
 IAtWgt=          16          14          12          12          12          16          16           1           1          16
 AtmWgt=  15.9949146  14.0030740  12.0000000  12.0000000  12.0000000  15.9949146  15.9949146   1.0078250   1.0078250  15.9949146
 NucSpn=           0           2           0           0           0           0           0           1           1           0
 AtZEff=  -0.0000000  -0.0000000  -0.0000000  -0.0000000  -0.0000000  -0.0000000  -0.0000000  -0.0000000  -0.0000000  -0.0000000
 NQMom=    0.0000000   2.0440000   0.0000000   0.0000000   0.0000000   0.0000000   0.0000000   0.0000000   0.0000000   0.0000000
 NMagM=    0.0000000   0.4037610   0.0000000   0.0000000   0.0000000   0.0000000   0.0000000   2.7928460   2.7928460   0.0000000
 AtZNuc=   8.0000000   7.0000000   6.0000000   6.0000000   6.0000000   8.0000000   8.0000000   1.0000000   1.0000000   8.0000000

  Atom        41          42          43          44          45          46          47          48          49          50
 IAtWgt=          12          12          12          12           1           1           1           1           1           1
 AtmWgt=  12.0000000  12.0000000  12.0000000  12.0000000   1.0078250   1.0078250   1.0078250   1.0078250   1.0078250   1.0078250
 NucSpn=           0           0           0           0           1           1           1           1           1           1
 AtZEff=  -0.0000000  -0.0000000  -0.0000000  -0.0000000  -0.0000000  -0.0000000  -0.0000000  -0.0000000  -0.0000000  -0.0000000
 NQMom=    0.0000000   0.0000000   0.0000000   0.0000000   0.0000000   0.0000000   0.0000000   0.0000000   0.0000000   0.0000000
 NMagM=    0.0000000   0.0000000   0.0000000   0.0000000   2.7928460   2.7928460   2.7928460   2.7928460   2.7928460   2.7928460
 AtZNuc=   6.0000000   6.0000000   6.0000000   6.0000000   1.0000000   1.0000000   1.0000000   1.0000000   1.0000000   1.0000000

  Atom        51          52          53          54          55          56          57
 IAtWgt=           1           1           1          12           1           1           1
 AtmWgt=   1.0078250   1.0078250   1.0078250  12.0000000   1.0078250   1.0078250   1.0078250
 NucSpn=           1           1           1           0           1           1           1
 AtZEff=  -0.0000000  -0.0000000  -0.0000000  -0.0000000  -0.0000000  -0.0000000  -0.0000000
 NQMom=    0.0000000   0.0000000   0.0000000   0.0000000   0.0000000   0.0000000   0.0000000
 NMagM=    2.7928460   2.7928460   2.7928460   0.0000000   2.7928460   2.7928460   2.7928460
 AtZNuc=   1.0000000   1.0000000   1.0000000   6.0000000   1.0000000   1.0000000   1.0000000
 Leave Link  101 at Sun Sep 28 17:25:28 2025, MaxMem=   104857600 cpu:               0.3 elap:               0.3
 (Enter /home/echo/g16/l103.exe)

 GradGradGradGradGradGradGradGradGradGradGradGradGradGradGradGradGradGrad
 Berny optimization.
 Initialization pass.
 Trust Radius=3.00D-01 FncErr=1.00D-07 GrdErr=1.00D-07 EigMax=2.50D+02 EigMin=1.00D-04
 Number of steps in this run=      2 maximum allowed number of steps=      2.
 GradGradGradGradGradGradGradGradGradGradGradGradGradGradGradGradGradGrad

 Leave Link  103 at Sun Sep 28 17:25:28 2025, MaxMem=   104857600 cpu:               0.0 elap:               0.0
 (Enter /home/echo/g16/l202.exe)
 Stoichiometry    C21H28FeN2O4Pd
 Framework group  C1[X(C21H28FeN2O4Pd)]
 Deg. of freedom   165
 Full point group                 C1      NOp   1
 Largest Abelian subgroup         C1      NOp   1
 Largest concise Abelian subgroup C1      NOp   1
                         Standard orientation:                         
 ---------------------------------------------------------------------
 Center     Atomic      Atomic             Coordinates (Angstroms)
 Number     Number       Type             X           Y           Z
 ---------------------------------------------------------------------
      1          6           0       -0.442769   -1.692840   -0.237800
      2          6           0       -2.147169   -1.617491    1.679060
      3          6           0       -1.690239   -2.056551    0.342260
      4          6           0       -0.748190   -1.480750   -1.608850
      5          6           0       -2.035809   -1.961261   -1.894500
      6          6           0       -2.630569   -2.324621   -0.679850
      7          1           0       -0.083570   -1.091370   -2.349890
      8          1           0       -2.511139   -1.925621   -2.846150
      9          1           0       -3.649599   -2.604941   -0.547050
     10          1           0       -3.236099   -1.600491    1.626600
     11          7           0       -1.661120   -0.246451    1.945550
     12          1           0       -1.837189   -2.272941    2.497120
     13          6           0       -2.663630    0.988639   -1.807080
     14          6           0       -3.706540    0.068159   -1.613760
     15          6           0       -3.964110   -0.024981   -0.235240
     16          6           0       -3.081700    0.837219    0.424100
     17          6           0       -2.271750    1.482089   -0.549200
     18          1           0       -2.226160    1.199589   -2.754500
     19          1           0       -4.168580   -0.524581   -2.365980
     20          1           0       -4.658930   -0.692441    0.218980
     21          1           0       -1.593000    2.289159   -0.359670
     22         26           0       -2.130620   -0.478391   -0.651120
     23          6           0       -2.735800    0.742819    1.853410
     24          1           0       -3.600700    0.446989    2.461470
     25          1           0       -2.348210    1.696849    2.215590
     26          6           0       -0.906680   -0.156260    3.195050
     27          1           0       -0.523950    0.861150    3.312470
     28          1           0       -1.524240   -0.406390    4.069380
     29          1           0       -0.055920   -0.845690    3.149740
     30         46           0       -0.099650    0.282980    0.585780
     31          8           0        0.367660    2.187750    1.040520
     32          7           0        1.501310    0.486560   -0.564220
     33          6           0        1.028240    2.755580    0.104460
     34          6           0        1.519510    1.825470   -1.061580
     35          6           0        2.444280   -0.313630   -0.181400
     36          8           0        1.266790    3.948390    0.055810
     37          8           0        2.133310   -1.413790    0.388080
     38          1           0        0.826491   -1.659300    0.175130
     39          1           0        2.511950    2.154330   -1.390020
     40          8           0        3.704490    0.017900   -0.490880
     41          6           0        4.862610   -0.973360    1.410840
     42          6           0        4.815560   -0.815910   -0.109370
     43          6           0        4.726671   -2.176080   -0.803140
     44          6           0        6.039800   -0.043340   -0.603400
     45          1           0        4.872100    0.006530    1.884030
     46          1           0        5.760260   -1.514100    1.697870
     47          1           0        3.991580   -1.524050    1.756510
     48          1           0        5.616711   -2.758540   -0.581760
     49          1           0        4.651091   -2.039720   -1.879940
     50          1           0        3.851381   -2.718120   -0.455530
     51          1           0        6.947590   -0.586120   -0.356780
     52          1           0        6.071840    0.937730   -0.137000
     53          1           0        5.984930    0.090360   -1.680600
     54          6           0        0.500920    1.840020   -2.214560
     55          1           0        0.972740    1.498200   -3.133750
     56          1           0       -0.308870    1.141660   -1.944810
     57          1           0        0.112320    2.842660   -2.372370
 ---------------------------------------------------------------------
 Rotational constants (GHZ):           0.2896460           0.1240164           0.1158332
 Leave Link  202 at Sun Sep 28 17:25:28 2025, MaxMem=   104857600 cpu:               0.0 elap:               0.0
 (Enter /home/echo/g16/l301.exe)
 Standard basis: STO-3G (5D, 7F)
 Ernie: Thresh=  0.10000D-02 Tol=  0.10000D-05 Strict=F.
 There are   211 symmetry adapted cartesian basis functions of A   symmetry.
 There are   208 symmetry adapted basis functions of A   symmetry.
   208 basis functions,   633 primitive gaussians,   211 cartesian basis functions
   136 alpha electrons      136 beta electrons
       nuclear repulsion energy      5343.4882387428 Hartrees.
 IExCor=    0 DFT=F Ex=HF Corr=None ExCW=0 ScaHFX=  1.000000
 ScaDFX=  1.000000  1.000000  1.000000  1.000000 ScalE2=  1.000000  1.000000
 IRadAn=      5 IRanWt=     -1 IRanGd=            0 ICorTp=0 IEmpDi=  4
 NAtoms=   57 NActive=   57 NUniq=   57 SFac= 1.00D+00 NAtFMM=   60 NAOKFM=F Big=F
 Integral buffers will be    131072 words long.
 Raffenetti 1 integral format.
 Two-electron integral symmetry is turned on.
 Leave Link  301 at Sun Sep 28 17:25:28 2025, MaxMem=   104857600 cpu:               0.0 elap:               0.1
 (Enter /home/echo/g16/l402.exe)
 External calculation of energy, first and second derivatives.
 Running external command "./xtb.sh R"
         input file       "/home/echo/scratch/Gau-16285.EIn"
         output file      "/home/echo/scratch/Gau-16285.EOu"
         message file     "/home/echo/scratch/Gau-16285.EMs"
         fchk file        "/home/echo/scratch/Gau-16285.EFC"
         mat. el file     "/home/echo/scratch/Gau-16285.EUF"
Generating mol.tmp
Generating mol.xyz via genxyz
Running: xtb mol.xyz --chrg 0 --uhf 0 --gfn2 --hess --grad > xtbout
xtb running finished!
Extracting data from xtb outputs via extderi
 Recovered energy= -89.2295373895     dipole=      0.000000000000      0.000000000000      0.000000000000
 Energy=    -89.2295374     NIter=   0.
 Dipole moment=       0.000000       0.000000       0.000000
 Leave Link  402 at Sun Sep 28 17:25:35 2025, MaxMem=   104857600 cpu:               0.0 elap:               6.5
 (Enter /home/echo/g16/l601.exe)
 Leave Link  601 at Sun Sep 28 17:25:35 2025, MaxMem=   104857600 cpu:               0.0 elap:               0.0
 (Enter /home/echo/g16/l716.exe)
 Dipole        = 0.00000000D+00 0.00000000D+00 0.00000000D+00
 Full mass-weighted force constant matrix:
 Low frequencies --- -801.5658   -0.0227   -0.0158   -0.0137   -0.0127    0.0097
 Low frequencies ---    0.0231   20.2980   39.8384
 ******    1 imaginary frequencies (negative Signs) ****** 
 Diagonal vibrational polarizability:
        0.0000000       0.0000000       0.0000000
 Harmonic frequencies (cm**-1), IR intensities (KM/Mole), Raman scattering
 activities (A**4/AMU), depolarization ratios for plane and unpolarized
 incident light, reduced masses (AMU), force constants (mDyne/A),
 and normal coordinates:
                      1                      2                      3
                      A                      A                      A
 Frequencies --   -801.5658                20.2980                39.8384
 Red. masses --      1.1528                 4.8350                 4.8198
 Frc consts  --      0.4364                 0.0012                 0.0045
 IR Inten    --      0.0000                 0.0000                 0.0000
  Atom  AN      X      Y      Z        X      Y      Z        X      Y      Z
     1   6    -0.02   0.05   0.02     0.03   0.01   0.05     0.04   0.02  -0.08
     2   6    -0.00  -0.00  -0.00    -0.03   0.01  -0.01     0.07  -0.06  -0.05
     3   6    -0.01  -0.00  -0.00     0.02   0.01   0.01     0.05  -0.00  -0.07
     4   6    -0.00  -0.00   0.01     0.08  -0.01   0.04     0.01   0.06  -0.07
     5   6    -0.00  -0.00  -0.00     0.09  -0.02   0.00     0.00   0.07  -0.06
     6   6    -0.01  -0.00  -0.00     0.05  -0.01  -0.02     0.03   0.02  -0.06
     7   1    -0.02   0.02  -0.01     0.11  -0.02   0.06    -0.01   0.07  -0.08
     8   1    -0.00  -0.01  -0.00     0.13  -0.03  -0.02    -0.01   0.10  -0.05
     9   1    -0.01  -0.01  -0.01     0.05  -0.02  -0.05     0.03   0.00  -0.06
    10   1    -0.00   0.01   0.00    -0.03   0.00  -0.04     0.07  -0.08  -0.02
    11   7     0.01   0.00  -0.01    -0.05   0.02   0.00     0.06  -0.06  -0.01
    12   1    -0.00   0.00  -0.00    -0.05   0.02   0.01     0.11  -0.08  -0.08
    13   6     0.00  -0.00   0.00     0.05  -0.02  -0.05    -0.06   0.06   0.05
    14   6    -0.00   0.01   0.00     0.06  -0.03  -0.07    -0.03   0.03   0.05
    15   6    -0.00   0.00  -0.00     0.02  -0.02  -0.08     0.01  -0.03   0.06
    16   6     0.00   0.00  -0.00    -0.01  -0.01  -0.06     0.01  -0.03   0.06
    17   6    -0.00   0.00   0.00     0.01  -0.01  -0.04    -0.03   0.02   0.06
    18   1    -0.00  -0.00  -0.00     0.07  -0.02  -0.04    -0.10   0.11   0.05
    19   1     0.00  -0.00   0.00     0.09  -0.05  -0.08    -0.04   0.04   0.04
    20   1     0.00  -0.00  -0.00     0.01  -0.03  -0.09     0.04  -0.06   0.05
    21   1    -0.01   0.02   0.00    -0.00   0.00  -0.03    -0.04   0.02   0.07
    22  26    -0.01  -0.01  -0.01     0.04  -0.00  -0.02     0.01   0.02  -0.01
    23   6     0.00   0.00  -0.00    -0.05   0.01  -0.05     0.05  -0.07   0.05
    24   1     0.01  -0.01   0.00    -0.07   0.01  -0.07     0.06  -0.10   0.06
    25   1     0.00   0.00   0.00    -0.07   0.02  -0.05     0.04  -0.08   0.07
    26   6    -0.00   0.00   0.00    -0.10   0.04   0.03     0.10  -0.10  -0.03
    27   1    -0.00  -0.00   0.00    -0.12   0.04   0.04     0.08  -0.10   0.00
    28   1    -0.01   0.01  -0.00    -0.13   0.04   0.01     0.13  -0.15  -0.02
    29   1    -0.01  -0.01   0.01    -0.09   0.04   0.07     0.11  -0.08  -0.09
    30  46    -0.00  -0.00   0.00    -0.01   0.02   0.06     0.02   0.00  -0.01
    31   8     0.00   0.01   0.00    -0.08   0.05   0.02    -0.00   0.03  -0.04
    32   7     0.01   0.00   0.01     0.01   0.04   0.11     0.00   0.02  -0.02
    33   6    -0.01   0.00   0.01    -0.08   0.04   0.02    -0.04   0.02  -0.07
    34   6     0.00  -0.00  -0.01    -0.01   0.02   0.06    -0.05  -0.00  -0.07
    35   6     0.00   0.06  -0.04     0.01   0.03   0.07    -0.00   0.07   0.08
    36   8     0.01  -0.00  -0.01    -0.12   0.05  -0.02    -0.06   0.02  -0.11
    37   8    -0.01  -0.05  -0.00     0.02   0.04   0.09    -0.03   0.11   0.18
    38   1     0.94   0.24   0.19     0.02   0.01   0.07     0.10   0.02  -0.06
    39   1    -0.00   0.01   0.00    -0.01   0.04   0.08    -0.08   0.02  -0.12
    40   8    -0.01  -0.01   0.01     0.01   0.00   0.01     0.01   0.02   0.09
    41   6    -0.00  -0.00   0.00     0.11  -0.13  -0.11     0.04   0.02   0.07
    42   6     0.01  -0.01   0.00     0.00  -0.06  -0.10    -0.03  -0.04   0.07
    43   6    -0.00  -0.00  -0.00    -0.12  -0.03  -0.15    -0.16  -0.06   0.12
    44   6    -0.00   0.00  -0.00    -0.00  -0.10  -0.17    -0.00  -0.14  -0.03
    45   1    -0.00   0.00  -0.00     0.21  -0.15  -0.07     0.16   0.03   0.03
    46   1     0.00   0.01   0.00     0.11  -0.20  -0.21    -0.00  -0.06   0.04
    47   1     0.01  -0.01   0.01     0.11  -0.10  -0.07     0.00   0.12   0.14
    48   1     0.00   0.00  -0.01    -0.12  -0.08  -0.26    -0.16  -0.09   0.06
    49   1    -0.00   0.00   0.00    -0.20   0.02  -0.14    -0.25  -0.09   0.12
    50   1     0.01  -0.02  -0.00    -0.11  -0.01  -0.10    -0.15  -0.01   0.22
    51   1    -0.00   0.00  -0.00    -0.01  -0.15  -0.26    -0.03  -0.19  -0.04
    52   1    -0.00   0.00  -0.00     0.08  -0.12  -0.13     0.08  -0.12  -0.08
    53   1    -0.00   0.00   0.00    -0.08  -0.06  -0.16    -0.04  -0.20  -0.03
    54   6     0.00  -0.00   0.00     0.03  -0.04   0.03    -0.11  -0.06  -0.02
    55   1    -0.01  -0.00  -0.00     0.06  -0.07   0.06    -0.15  -0.10  -0.03
    56   1    -0.00   0.00   0.00     0.03  -0.05   0.03    -0.10  -0.05   0.04
    57   1     0.00  -0.00   0.01     0.01  -0.06  -0.02    -0.12  -0.07  -0.05
                      4                      5                      6
                      A                      A                      A
 Frequencies --     43.6180                47.4798                70.0598
 Red. masses --      3.2146                 7.3995                 5.5524
 Frc consts  --      0.0036                 0.0098                 0.0161
 IR Inten    --      0.0000                 0.0000                 0.0000
  Atom  AN      X      Y      Z        X      Y      Z        X      Y      Z
     1   6    -0.00  -0.00   0.01     0.01   0.02  -0.00     0.01  -0.01   0.02
     2   6    -0.03  -0.01  -0.02     0.04  -0.02   0.02    -0.04   0.00  -0.02
     3   6    -0.01   0.00  -0.01     0.04  -0.03   0.02    -0.02   0.02  -0.02
     4   6     0.02   0.01   0.01    -0.02  -0.01  -0.00     0.04   0.02   0.01
     5   6     0.03   0.02  -0.02     0.00  -0.08   0.03     0.04   0.05  -0.03
     6   6     0.00   0.01  -0.03     0.04  -0.08   0.04     0.00   0.04  -0.05
     7   1     0.04   0.01   0.02    -0.05   0.03  -0.01     0.08  -0.02   0.03
     8   1     0.04   0.03  -0.03    -0.02  -0.12   0.03     0.07   0.07  -0.04
     9   1    -0.00   0.02  -0.05     0.05  -0.12   0.06    -0.00   0.05  -0.08
    10   1    -0.03   0.00  -0.03     0.04  -0.06   0.02    -0.04  -0.00  -0.03
    11   7    -0.03  -0.01   0.00    -0.01   0.01  -0.02    -0.04  -0.00   0.01
    12   1    -0.05  -0.02  -0.02     0.07   0.01   0.03    -0.04  -0.01  -0.03
    13   6     0.02   0.02  -0.00    -0.04  -0.09  -0.01    -0.01   0.05  -0.00
    14   6     0.02   0.02  -0.02    -0.03  -0.10  -0.01     0.01   0.02  -0.02
    15   6     0.01   0.01  -0.03    -0.04  -0.09  -0.01     0.00  -0.00  -0.03
    16   6     0.00   0.01  -0.01    -0.07  -0.07  -0.01    -0.02   0.00  -0.01
    17   6     0.01   0.01   0.00    -0.07  -0.06  -0.01    -0.03   0.03   0.01
    18   1     0.03   0.03   0.00    -0.01  -0.10  -0.00    -0.03   0.10  -0.00
    19   1     0.03   0.03  -0.03    -0.01  -0.11  -0.01     0.03   0.03  -0.04
    20   1    -0.00   0.01  -0.04    -0.03  -0.11  -0.01     0.00  -0.01  -0.04
    21   1     0.01   0.01   0.02    -0.09  -0.05  -0.00    -0.02   0.03   0.04
    22  26     0.01   0.01  -0.01    -0.03  -0.06   0.01     0.02   0.04  -0.02
    23   6    -0.02  -0.01  -0.01    -0.06  -0.05  -0.01    -0.04  -0.00  -0.00
    24   1    -0.03  -0.00  -0.02    -0.05  -0.09  -0.01    -0.05  -0.00  -0.02
    25   1    -0.02  -0.01   0.00    -0.11  -0.03  -0.01    -0.05  -0.00   0.01
    26   6    -0.05  -0.03   0.02     0.01   0.06  -0.04    -0.07  -0.02   0.03
    27   1    -0.04  -0.03   0.03    -0.03   0.08  -0.06    -0.08  -0.02   0.05
    28   1    -0.06  -0.03   0.00     0.05   0.05  -0.02    -0.10  -0.03   0.01
    29   1    -0.05  -0.03   0.02     0.04   0.10  -0.05    -0.07  -0.02   0.04
    30  46    -0.00  -0.01   0.02    -0.02   0.05  -0.05    -0.02  -0.02   0.04
    31   8     0.00  -0.02   0.04    -0.02   0.05  -0.03     0.03   0.01  -0.06
    32   7    -0.00  -0.00   0.03     0.01   0.05  -0.03    -0.05  -0.09   0.00
    33   6    -0.00  -0.01   0.03     0.14   0.03   0.08     0.10  -0.07  -0.05
    34   6    -0.00  -0.00   0.03     0.06   0.07   0.02    -0.06  -0.12  -0.08
    35   6    -0.00  -0.03  -0.04    -0.01   0.06   0.03    -0.02  -0.03   0.06
    36   8    -0.01  -0.01   0.04     0.37  -0.00   0.23     0.29  -0.11  -0.02
    37   8     0.01  -0.02  -0.02    -0.02   0.09   0.08     0.01  -0.02   0.11
    38   1    -0.01  -0.00   0.02     0.03   0.05  -0.01     0.02  -0.04   0.05
    39   1    -0.00   0.00   0.03     0.07   0.03   0.02    -0.09  -0.16  -0.19
    40   8    -0.02  -0.06  -0.13     0.00   0.03   0.04    -0.04   0.03   0.06
    41   6     0.02   0.25  -0.01     0.05   0.01  -0.01     0.10   0.03  -0.03
    42   6     0.01   0.01  -0.04    -0.02  -0.03  -0.01     0.02   0.08  -0.02
    43   6     0.03  -0.10   0.18    -0.14  -0.04   0.03     0.05   0.10  -0.06
    44   6    -0.02  -0.04  -0.17    -0.01  -0.11  -0.10    -0.05   0.16  -0.06
    45   1     0.01   0.32  -0.16     0.16   0.02  -0.03     0.09   0.02   0.00
    46   1     0.03   0.30   0.07     0.03  -0.06  -0.05     0.13   0.05  -0.09
    47   1     0.03   0.29   0.08     0.03   0.09   0.06     0.14  -0.01  -0.00
    48   1     0.05  -0.04   0.26    -0.14  -0.06  -0.04     0.08   0.13  -0.13
    49   1     0.01  -0.27   0.16    -0.23  -0.06   0.03    -0.02   0.13  -0.05
    50   1     0.04  -0.07   0.27    -0.12  -0.00   0.12     0.09   0.05  -0.03
    51   1    -0.00   0.01  -0.10    -0.02  -0.15  -0.13    -0.01   0.21  -0.12
    52   1    -0.03   0.03  -0.33     0.06  -0.09  -0.15    -0.09   0.15  -0.04
    53   1    -0.03  -0.22  -0.19    -0.06  -0.15  -0.11    -0.12   0.19  -0.06
    54   6     0.00   0.01   0.02     0.04   0.17   0.04    -0.17  -0.17   0.02
    55   1     0.01   0.02   0.02     0.02   0.23   0.01    -0.24  -0.19  -0.02
    56   1     0.01  -0.00   0.01     0.03   0.17  -0.00    -0.13  -0.19   0.10
    57   1    -0.00   0.00   0.03     0.06   0.19   0.11    -0.20  -0.19   0.02
                      7                      8                      9
                      A                      A                      A
 Frequencies --     80.7613               101.7149               110.3808
 Red. masses --      5.0428                 4.1653                 4.0097
 Frc consts  --      0.0194                 0.0254                 0.0288
 IR Inten    --      0.0000                 0.0000                 0.0000
  Atom  AN      X      Y      Z        X      Y      Z        X      Y      Z
     1   6     0.02   0.05   0.03    -0.04   0.01   0.01     0.02   0.03  -0.07
     2   6    -0.00  -0.07  -0.01    -0.06  -0.06  -0.00     0.13  -0.01   0.05
     3   6     0.03  -0.01  -0.01    -0.04  -0.04  -0.00     0.05   0.05   0.01
     4   6     0.06   0.06   0.02    -0.04   0.02   0.01    -0.04  -0.01  -0.06
     5   6     0.08   0.04  -0.02    -0.03   0.01  -0.00    -0.05  -0.03   0.02
     6   6     0.06  -0.01  -0.04    -0.03  -0.02  -0.01     0.01   0.00   0.06
     7   1     0.07   0.08   0.04    -0.05   0.06   0.02    -0.08  -0.04  -0.11
     8   1     0.10   0.05  -0.03    -0.03   0.02  -0.00    -0.09  -0.09   0.04
     9   1     0.07  -0.05  -0.08    -0.03  -0.02  -0.02     0.02  -0.03   0.11
    10   1    -0.00  -0.11  -0.01    -0.06  -0.06  -0.02     0.12  -0.15   0.18
    11   7    -0.06  -0.06   0.03    -0.06  -0.07   0.02    -0.01   0.05   0.03
    12   1     0.02  -0.08  -0.02    -0.07  -0.07  -0.01     0.31   0.01   0.01
    13   6    -0.02   0.03   0.06     0.04   0.03   0.06    -0.00   0.07   0.02
    14   6     0.01  -0.02   0.00     0.00   0.06  -0.00     0.02   0.03  -0.06
    15   6    -0.02  -0.09  -0.01    -0.03   0.03  -0.01    -0.03  -0.05  -0.08
    16   6    -0.07  -0.07   0.04    -0.03  -0.02   0.04    -0.07  -0.06  -0.00
    17   6    -0.07  -0.01   0.09     0.02  -0.01   0.08    -0.06   0.01   0.07
    18   1    -0.02   0.09   0.08     0.08   0.04   0.07    -0.00   0.16   0.04
    19   1     0.05  -0.01  -0.03     0.01   0.09  -0.03     0.05   0.08  -0.12
    20   1    -0.01  -0.13  -0.05    -0.06   0.02  -0.05    -0.01  -0.10  -0.12
    21   1    -0.11   0.01   0.14     0.02  -0.02   0.11    -0.08   0.02   0.13
    22  26     0.01   0.00   0.02    -0.04  -0.02   0.03    -0.00   0.02  -0.03
    23   6    -0.11  -0.11   0.05    -0.07  -0.07   0.05    -0.14  -0.09   0.01
    24   1    -0.11  -0.18   0.02    -0.08  -0.11   0.01    -0.13  -0.23  -0.05
    25   1    -0.17  -0.10   0.10    -0.09  -0.09   0.10    -0.29  -0.05   0.08
    26   6    -0.07  -0.06   0.03    -0.04  -0.10   0.02    -0.05   0.18   0.04
    27   1    -0.11  -0.05   0.07    -0.04  -0.10   0.04    -0.16   0.22  -0.00
    28   1    -0.05  -0.12   0.03    -0.03  -0.13   0.02    -0.04   0.15   0.04
    29   1    -0.03  -0.02   0.01    -0.04  -0.10  -0.02     0.03   0.27   0.09
    30  46     0.00   0.07   0.02    -0.02   0.02  -0.02    -0.00   0.02  -0.02
    31   8    -0.06   0.12  -0.10     0.08   0.02  -0.04     0.17  -0.07   0.12
    32   7     0.04   0.04   0.04     0.02  -0.03   0.01     0.02  -0.03  -0.01
    33   6     0.02   0.06  -0.08     0.06   0.01  -0.06     0.02  -0.04   0.04
    34   6     0.02   0.01  -0.03     0.13  -0.03   0.01    -0.02  -0.03   0.01
    35   6     0.03  -0.03  -0.07    -0.00  -0.03   0.05     0.02  -0.03  -0.00
    36   8     0.09   0.05  -0.09    -0.03   0.02  -0.14    -0.09  -0.02  -0.02
    37   8     0.02  -0.02  -0.08    -0.02  -0.04   0.03     0.02  -0.04  -0.02
    38   1    -0.05   0.05   0.03    -0.03   0.01   0.02     0.02   0.01  -0.08
    39   1     0.00  -0.00  -0.08     0.19  -0.09   0.10    -0.04  -0.01  -0.04
    40   8     0.03  -0.09  -0.14    -0.00   0.01   0.09     0.03  -0.01   0.02
    41   6    -0.14  -0.06  -0.01     0.14   0.02   0.00     0.05  -0.02   0.01
    42   6     0.00  -0.07  -0.02     0.04   0.03   0.01     0.03  -0.02   0.01
    43   6     0.09  -0.07  -0.02     0.03   0.03   0.00     0.03  -0.02   0.01
    44   6     0.05  -0.05   0.11    -0.02   0.08  -0.08     0.03  -0.02  -0.01
    45   1    -0.29  -0.05  -0.02     0.21   0.01   0.01     0.09  -0.02   0.01
    46   1    -0.12   0.04   0.08     0.14  -0.02  -0.06     0.04  -0.04  -0.01
    47   1    -0.12  -0.14  -0.09     0.14   0.05   0.05     0.04   0.01   0.02
    48   1     0.04  -0.09   0.14     0.07   0.07  -0.09     0.05  -0.01  -0.01
    49   1     0.28  -0.09  -0.03    -0.08   0.04   0.01     0.00  -0.02   0.01
    50   1     0.02  -0.05  -0.15     0.08  -0.00   0.08     0.05  -0.03   0.03
    51   1     0.02  -0.06   0.18     0.02   0.12  -0.12     0.03  -0.01  -0.00
    52   1     0.01  -0.07   0.15    -0.04   0.08  -0.09     0.02  -0.01  -0.02
    53   1     0.14  -0.02   0.11    -0.09   0.06  -0.07     0.02  -0.03  -0.01
    54   6    -0.03  -0.05   0.00     0.25   0.05  -0.08    -0.08  -0.03   0.06
    55   1    -0.08  -0.15   0.01     0.27  -0.08  -0.02    -0.12   0.01   0.03
    56   1    -0.05   0.01   0.09     0.13   0.18  -0.10    -0.04  -0.07   0.08
    57   1     0.01  -0.04  -0.07     0.40   0.10  -0.17    -0.12  -0.04   0.11
                     10                     11                     12
                      A                      A                      A
 Frequencies --    113.8716               136.0536               143.2316
 Red. masses --      6.0473                 5.1227                 2.7281
 Frc consts  --      0.0462                 0.0559                 0.0330
 IR Inten    --      0.0000                 0.0000                 0.0000
  Atom  AN      X      Y      Z        X      Y      Z        X      Y      Z
     1   6     0.00  -0.02   0.02     0.01   0.01   0.11     0.02   0.01  -0.02
     2   6     0.01  -0.04   0.02    -0.15   0.04  -0.06     0.03   0.01  -0.02
     3   6    -0.00  -0.02   0.01    -0.03  -0.02   0.00     0.02  -0.00  -0.02
     4   6     0.03  -0.07   0.00     0.09   0.08   0.10     0.01   0.03  -0.02
     5   6     0.03  -0.06   0.00     0.13   0.07  -0.02     0.01   0.01  -0.02
     6   6     0.01  -0.03   0.01     0.05  -0.00  -0.08     0.02  -0.01  -0.01
     7   1     0.04  -0.07   0.01     0.15   0.11   0.16    -0.01   0.05  -0.02
     8   1     0.04  -0.07  -0.00     0.19   0.13  -0.04     0.00   0.01  -0.01
     9   1     0.01  -0.02  -0.00     0.05  -0.01  -0.16     0.02  -0.01  -0.01
    10   1     0.01  -0.05   0.05    -0.14   0.14  -0.22     0.03   0.00  -0.02
    11   7     0.01  -0.05   0.06    -0.07   0.01  -0.05     0.02   0.02  -0.04
    12   1     0.03  -0.06   0.00    -0.33   0.04   0.00     0.04   0.02  -0.01
    13   6     0.11   0.00  -0.01    -0.08  -0.09  -0.01    -0.03  -0.02  -0.01
    14   6     0.08   0.03  -0.04    -0.04  -0.12   0.05    -0.02  -0.03   0.01
    15   6     0.06   0.01  -0.05    -0.03  -0.05   0.05    -0.00  -0.01   0.01
    16   6     0.08  -0.03  -0.02    -0.06   0.03  -0.00    -0.01   0.00  -0.00
    17   6     0.11  -0.02   0.00    -0.08  -0.01  -0.04    -0.02  -0.00  -0.02
    18   1     0.10   0.02  -0.01    -0.08  -0.16  -0.02    -0.02  -0.04  -0.01
    19   1     0.08   0.05  -0.06    -0.02  -0.19   0.09    -0.02  -0.04   0.02
    20   1     0.05   0.02  -0.06    -0.02  -0.04   0.08     0.01  -0.02   0.03
    21   1     0.11  -0.02   0.01    -0.09  -0.00  -0.08    -0.02   0.00  -0.04
    22  26     0.05  -0.04  -0.02    -0.01   0.01   0.06    -0.00  -0.00  -0.00
    23   6     0.03  -0.04  -0.00    -0.01   0.08  -0.02     0.01   0.01  -0.01
    24   1    -0.01  -0.03  -0.04     0.01   0.16   0.05     0.03   0.01   0.01
    25   1     0.01  -0.04   0.02     0.08   0.06  -0.08     0.02   0.01  -0.01
    26   6    -0.07  -0.06   0.11    -0.05  -0.08  -0.06     0.12   0.03  -0.10
    27   1    -0.06  -0.07   0.14     0.04  -0.11  -0.04     0.10   0.04  -0.12
    28   1    -0.13  -0.06   0.07    -0.06  -0.05  -0.06     0.20  -0.00  -0.05
    29   1    -0.08  -0.07   0.16    -0.10  -0.14  -0.09     0.14   0.05  -0.18
    30  46     0.00   0.02   0.04    -0.00   0.03  -0.04    -0.03   0.01   0.00
    31   8     0.25  -0.01   0.08     0.24  -0.08   0.13     0.06  -0.00   0.06
    32   7    -0.11   0.00  -0.10     0.02  -0.03  -0.06    -0.01  -0.01   0.05
    33   6     0.08   0.01  -0.02     0.06  -0.04   0.03     0.01  -0.01   0.03
    34   6    -0.02   0.01  -0.07    -0.01  -0.01  -0.02     0.02  -0.02   0.04
    35   6    -0.10   0.05  -0.04     0.03  -0.01  -0.02    -0.03  -0.02   0.06
    36   8     0.02   0.02  -0.08    -0.07  -0.01  -0.04    -0.02  -0.00  -0.01
    37   8    -0.06   0.07   0.03     0.04  -0.01  -0.03    -0.04   0.03   0.17
    38   1     0.04  -0.01   0.03    -0.02  -0.01   0.11     0.05  -0.00   0.01
    39   1     0.01  -0.05  -0.05    -0.04  -0.01  -0.08     0.04  -0.04   0.06
    40   8    -0.11   0.04  -0.06     0.04   0.02   0.03    -0.04  -0.10  -0.07
    41   6    -0.21   0.02  -0.01     0.04  -0.03   0.01    -0.03  -0.01  -0.03
    42   6    -0.15   0.02  -0.02     0.02  -0.01   0.01    -0.01  -0.02  -0.03
    43   6    -0.16   0.03  -0.04    -0.00  -0.00  -0.00     0.09  -0.04  -0.02
    44   6    -0.11   0.00   0.04     0.04  -0.04   0.01    -0.06   0.07  -0.01
    45   1    -0.29   0.02  -0.02     0.12  -0.03   0.02    -0.36  -0.01  -0.03
    46   1    -0.19   0.07   0.03     0.01  -0.09  -0.01     0.13   0.27   0.01
    47   1    -0.19  -0.03  -0.05     0.01   0.03   0.02     0.13  -0.28  -0.06
    48   1    -0.18   0.01  -0.02     0.01  -0.00  -0.05     0.00  -0.08   0.21
    49   1    -0.13   0.05  -0.04    -0.05   0.01   0.00     0.34  -0.07  -0.04
    50   1    -0.18   0.05  -0.07     0.01  -0.01   0.03    -0.02   0.02  -0.20
    51   1    -0.13  -0.03   0.05     0.03  -0.05   0.04    -0.03   0.02  -0.21
    52   1    -0.10  -0.01   0.06     0.05  -0.03  -0.02    -0.01  -0.02   0.16
    53   1    -0.08   0.03   0.04     0.07  -0.07   0.00    -0.18   0.26   0.02
    54   6     0.00   0.12  -0.08    -0.10   0.04   0.05     0.05  -0.00   0.01
    55   1     0.02   0.27  -0.12    -0.17   0.07  -0.00     0.06  -0.05   0.03
    56   1     0.05   0.04  -0.17    -0.09   0.03   0.08     0.01   0.04   0.01
    57   1    -0.06   0.12   0.05    -0.10   0.05   0.12     0.11   0.01  -0.02
                     13                     14                     15
                      A                      A                      A
 Frequencies --    159.5676               161.5906               170.9211
 Red. masses --      1.4943                 3.2812                 3.9824
 Frc consts  --      0.0224                 0.0505                 0.0685
 IR Inten    --      0.0000                 0.0000                 0.0000
  Atom  AN      X      Y      Z        X      Y      Z        X      Y      Z
     1   6     0.02  -0.00   0.01    -0.00   0.05  -0.10    -0.07  -0.03   0.01
     2   6     0.02   0.00  -0.00     0.06  -0.00  -0.02    -0.10  -0.02   0.00
     3   6     0.01  -0.00  -0.00     0.03   0.02  -0.04    -0.07  -0.04   0.02
     4   6     0.02   0.01   0.01    -0.04   0.00  -0.09    -0.07  -0.12  -0.00
     5   6     0.03   0.01  -0.00    -0.05  -0.03  -0.04    -0.09  -0.09   0.02
     6   6     0.02   0.00  -0.01     0.01  -0.02  -0.01    -0.09  -0.03   0.04
     7   1     0.03   0.02   0.02    -0.08   0.01  -0.12    -0.07  -0.17  -0.03
     8   1     0.04   0.02  -0.01    -0.08  -0.05  -0.02    -0.10  -0.10   0.03
     9   1     0.02   0.00  -0.02     0.01  -0.03   0.03    -0.10   0.00   0.06
    10   1     0.02  -0.01   0.00     0.06  -0.02   0.02    -0.09   0.04  -0.05
    11   7     0.01   0.01  -0.02     0.06  -0.01   0.04    -0.03  -0.05  -0.01
    12   1     0.03   0.01   0.01     0.10  -0.03  -0.06    -0.18  -0.03   0.02
    13   6     0.01   0.00   0.00    -0.12  -0.06  -0.05     0.10   0.01  -0.00
    14   6     0.02  -0.01  -0.01    -0.10  -0.06   0.06     0.05   0.07  -0.04
    15   6     0.01  -0.01  -0.01     0.01  -0.02   0.08     0.01   0.06  -0.05
    16   6    -0.01  -0.01   0.00     0.07   0.00  -0.01     0.04   0.01  -0.01
    17   6    -0.00   0.00   0.01    -0.02  -0.02  -0.10     0.09  -0.02   0.01
    18   1     0.02   0.01   0.01    -0.15  -0.11  -0.08     0.11   0.01   0.00
    19   1     0.03  -0.01  -0.01    -0.15  -0.09   0.11     0.04   0.09  -0.06
    20   1     0.01  -0.02  -0.02     0.05  -0.00   0.16    -0.04   0.09  -0.08
    21   1    -0.01   0.01   0.02    -0.00  -0.01  -0.18     0.08  -0.02   0.04
    22  26     0.02   0.00   0.01    -0.01  -0.01  -0.05    -0.01  -0.05  -0.01
    23   6    -0.01  -0.01   0.00     0.10   0.04  -0.02     0.01  -0.01   0.00
    24   1    -0.00  -0.03   0.00     0.09   0.12   0.01    -0.01   0.03  -0.02
    25   1    -0.03  -0.00   0.01     0.16   0.04  -0.07     0.05  -0.03   0.01
    26   6     0.11   0.03  -0.09    -0.10  -0.06   0.14     0.08  -0.12  -0.07
    27   1     0.08   0.05  -0.12    -0.09  -0.07   0.22     0.11  -0.14  -0.06
    28   1     0.19   0.01  -0.03    -0.23  -0.07   0.05     0.16  -0.16  -0.02
    29   1     0.13   0.06  -0.16    -0.11  -0.07   0.23     0.06  -0.14  -0.19
    30  46    -0.02   0.00   0.01    -0.01   0.04   0.02    -0.00   0.05  -0.01
    31   8    -0.00   0.01   0.01     0.04   0.03   0.04     0.05   0.05   0.04
    32   7    -0.02  -0.01   0.02     0.01   0.01   0.04     0.05   0.07   0.06
    33   6     0.00  -0.00   0.01     0.02   0.01   0.02     0.01   0.06   0.02
    34   6     0.00  -0.02   0.02     0.01  -0.00   0.02    -0.05   0.05  -0.00
    35   6    -0.03  -0.02  -0.00    -0.00  -0.03   0.02     0.03   0.03   0.02
    36   8     0.00  -0.00  -0.01     0.01   0.01  -0.01     0.01   0.06   0.01
    37   8    -0.01  -0.03  -0.01    -0.03  -0.02   0.01    -0.03   0.04   0.03
    38   1     0.01  -0.03   0.01    -0.04   0.03  -0.09    -0.04   0.03   0.01
    39   1     0.01  -0.03   0.03     0.01  -0.01   0.02    -0.09   0.08  -0.10
    40   8    -0.03  -0.01  -0.01    -0.00  -0.05  -0.01     0.04  -0.03  -0.01
    41   6    -0.04  -0.01  -0.01     0.03  -0.03  -0.00     0.06  -0.03  -0.01
    42   6    -0.03  -0.00  -0.00     0.02  -0.02  -0.00     0.05  -0.01  -0.01
    43   6    -0.01   0.00  -0.02     0.07  -0.03   0.00     0.08  -0.02  -0.00
    44   6    -0.04   0.02   0.01    -0.01   0.03   0.00     0.04   0.01   0.00
    45   1     0.17  -0.02  -0.00     0.16  -0.04   0.01     0.13  -0.03   0.00
    46   1    -0.15  -0.21  -0.02    -0.04  -0.15  -0.02     0.02  -0.10  -0.02
    47   1    -0.15   0.16   0.00    -0.04   0.08   0.00     0.02   0.04  -0.01
    48   1     0.11   0.11  -0.23     0.14   0.05  -0.10     0.09  -0.00   0.02
    49   1    -0.27   0.02   0.00    -0.05  -0.03   0.01     0.10  -0.03  -0.01
    50   1     0.13  -0.12   0.16     0.15  -0.10   0.09     0.08  -0.02  -0.02
    51   1    -0.01   0.23   0.37     0.03   0.20   0.23     0.06   0.09   0.12
    52   1    -0.29   0.16  -0.26    -0.20   0.12  -0.18    -0.05   0.06  -0.08
    53   1     0.17  -0.29  -0.04     0.12  -0.18  -0.03     0.12  -0.09  -0.01
    54   6     0.02  -0.00   0.00     0.02  -0.03   0.01    -0.15  -0.08   0.07
    55   1     0.03  -0.03   0.02     0.03  -0.07   0.03    -0.15   0.09   0.01
    56   1     0.00   0.02   0.00    -0.00   0.00   0.01     0.02  -0.28   0.08
    57   1     0.05   0.00  -0.01     0.05  -0.02  -0.03    -0.38  -0.16   0.17
                     16                     17                     18
                      A                      A                      A
 Frequencies --    175.8405               198.5439               202.9500
 Red. masses --      3.7550                 7.2078                 2.8642
 Frc consts  --      0.0684                 0.1674                 0.0695
 IR Inten    --      0.0000                 0.0000                 0.0000
  Atom  AN      X      Y      Z        X      Y      Z        X      Y      Z
     1   6     0.00  -0.01   0.03    -0.04   0.02  -0.12    -0.01   0.00  -0.01
     2   6    -0.03   0.01   0.00    -0.03   0.03  -0.09     0.00   0.01  -0.02
     3   6    -0.01   0.00   0.01     0.01  -0.05  -0.06    -0.00  -0.01  -0.01
     4   6    -0.00   0.02   0.03    -0.14   0.06  -0.09    -0.01   0.02  -0.01
     5   6    -0.00   0.02   0.02    -0.14   0.02  -0.03    -0.01   0.01  -0.01
     6   6    -0.01   0.01   0.01    -0.05  -0.03  -0.01    -0.00  -0.00  -0.01
     7   1    -0.01   0.03   0.03    -0.21   0.14  -0.11    -0.02   0.05  -0.00
     8   1    -0.00   0.02   0.02    -0.18   0.02  -0.01    -0.01   0.01  -0.01
     9   1    -0.01   0.01   0.01    -0.04  -0.03   0.05    -0.00  -0.01  -0.01
    10   1    -0.03   0.01  -0.02    -0.02   0.05  -0.17     0.00   0.02  -0.02
    11   7    -0.02   0.01   0.00    -0.04   0.04  -0.12     0.01   0.01  -0.02
    12   1    -0.05   0.01   0.01    -0.09   0.06  -0.04    -0.00   0.02  -0.01
    13   6     0.01   0.03   0.02    -0.03  -0.09  -0.04     0.01  -0.02  -0.01
    14   6    -0.00   0.03  -0.01    -0.06  -0.05  -0.03     0.01  -0.02  -0.01
    15   6    -0.03   0.02  -0.01    -0.09   0.00  -0.04    -0.01  -0.01  -0.02
    16   6    -0.04   0.01   0.01    -0.10   0.01  -0.05    -0.02  -0.01  -0.01
    17   6    -0.01   0.01   0.03    -0.04  -0.06  -0.04    -0.00  -0.01  -0.00
    18   1     0.02   0.03   0.03     0.03  -0.17  -0.02     0.03  -0.03  -0.00
    19   1     0.01   0.04  -0.02    -0.07  -0.05  -0.02     0.01  -0.02  -0.01
    20   1    -0.04   0.02  -0.03    -0.11   0.02  -0.03    -0.01  -0.01  -0.02
    21   1    -0.00  -0.00   0.06     0.00  -0.10  -0.04    -0.00  -0.02   0.01
    22  26    -0.02   0.01   0.02    -0.07  -0.02   0.03     0.00  -0.00   0.01
    23   6    -0.04  -0.00   0.00    -0.08   0.00  -0.07    -0.00   0.00  -0.02
    24   1    -0.03  -0.03   0.00    -0.05  -0.06  -0.06     0.01  -0.01  -0.01
    25   1    -0.05  -0.00   0.01    -0.12   0.01  -0.04    -0.01   0.01  -0.03
    26   6    -0.12   0.02   0.06     0.00   0.07  -0.15    -0.01   0.03  -0.02
    27   1    -0.09   0.01   0.05    -0.01   0.08  -0.18    -0.00   0.03  -0.03
    28   1    -0.21   0.08   0.01     0.04   0.07  -0.12    -0.02   0.06  -0.02
    29   1    -0.14  -0.01   0.15     0.02   0.08  -0.17    -0.01   0.02   0.02
    30  46     0.03  -0.05  -0.03     0.08  -0.06   0.12     0.04  -0.01   0.02
    31   8    -0.02  -0.06  -0.04     0.14   0.04   0.01    -0.05   0.06  -0.06
    32   7     0.03   0.02  -0.06     0.03   0.06   0.07    -0.02  -0.02  -0.06
    33   6    -0.02  -0.02  -0.01     0.08   0.05  -0.03     0.01   0.03  -0.03
    34   6     0.01   0.03  -0.04     0.04   0.03  -0.01     0.02   0.01   0.00
    35   6     0.03   0.06   0.03     0.04   0.06   0.00    -0.04  -0.04  -0.01
    36   8    -0.03  -0.02   0.04     0.06   0.06  -0.07    -0.01   0.03  -0.10
    37   8    -0.01   0.16   0.23    -0.00   0.05  -0.02    -0.04  -0.03  -0.01
    38   1     0.09   0.04   0.07    -0.02   0.04  -0.15    -0.03  -0.01  -0.02
    39   1     0.01   0.05  -0.03     0.04  -0.01  -0.03     0.01  -0.02  -0.03
    40   8     0.02  -0.05  -0.10     0.03   0.07  -0.03    -0.02  -0.06   0.04
    41   6    -0.03  -0.03  -0.04    -0.05   0.08  -0.01     0.06  -0.06   0.02
    42   6     0.03  -0.02  -0.04     0.01   0.05  -0.02     0.00  -0.04   0.03
    43   6     0.09  -0.01  -0.05    -0.06   0.06  -0.03     0.06  -0.05   0.05
    44   6     0.04   0.02   0.04     0.08  -0.04   0.02    -0.08   0.05  -0.02
    45   1     0.06  -0.03  -0.03     0.06   0.09  -0.04     0.05  -0.08   0.05
    46   1    -0.08  -0.12  -0.02    -0.13  -0.03   0.03     0.09  -0.04  -0.03
    47   1    -0.08   0.05  -0.06    -0.13   0.20  -0.03     0.10  -0.11   0.04
    48   1     0.12   0.02  -0.07    -0.12  -0.02   0.01     0.12   0.03   0.00
    49   1     0.07  -0.01  -0.05     0.02   0.08  -0.04    -0.02  -0.08   0.05
    50   1     0.11  -0.05  -0.05    -0.12   0.13  -0.09     0.13  -0.11   0.11
    51   1     0.06   0.24   0.44     0.02  -0.12   0.06    -0.02   0.10  -0.13
    52   1    -0.24   0.16  -0.23     0.14  -0.04   0.02    -0.10   0.03   0.02
    53   1     0.31  -0.29  -0.01     0.14  -0.04   0.02    -0.18   0.11  -0.01
    54   6     0.01   0.07  -0.03     0.04  -0.05  -0.00    -0.09   0.21   0.10
    55   1    -0.01   0.09  -0.05     0.01  -0.22   0.05    -0.18   0.55  -0.07
    56   1     0.00   0.07  -0.04    -0.01   0.05   0.10     0.01   0.05  -0.00
    57   1     0.02   0.08  -0.00     0.12  -0.04  -0.14    -0.22   0.22   0.45
                     19                     20                     21
                      A                      A                      A
 Frequencies --    222.2282               225.1583               234.5794
 Red. masses --      1.3780                 1.1362                 2.2828
 Frc consts  --      0.0401                 0.0339                 0.0740
 IR Inten    --      0.0000                 0.0000                 0.0000
  Atom  AN      X      Y      Z        X      Y      Z        X      Y      Z
     1   6     0.00  -0.01   0.01    -0.00   0.00   0.00    -0.01   0.02   0.00
     2   6     0.01  -0.01   0.02    -0.00  -0.00   0.00    -0.01   0.01  -0.02
     3   6    -0.01   0.01   0.00    -0.00  -0.00   0.00     0.00  -0.01  -0.00
     4   6     0.02  -0.00   0.01     0.00   0.00   0.00    -0.00   0.02   0.00
     5   6     0.02  -0.00  -0.00     0.00   0.00   0.00     0.00   0.01  -0.00
     6   6     0.00   0.00  -0.01     0.00  -0.00   0.00     0.00  -0.00  -0.00
     7   1     0.03  -0.01   0.01     0.00   0.00   0.00    -0.01   0.03   0.00
     8   1     0.02  -0.00  -0.01     0.00   0.00   0.00     0.00   0.01  -0.00
     9   1     0.00   0.00  -0.02     0.00  -0.00  -0.00     0.01  -0.01  -0.01
    10   1     0.01  -0.02   0.04    -0.00   0.00  -0.00    -0.00   0.02  -0.04
    11   7     0.00  -0.00   0.02    -0.00  -0.00  -0.00     0.01   0.01  -0.03
    12   1     0.04  -0.01   0.00    -0.00   0.00   0.00    -0.03   0.02  -0.00
    13   6    -0.01   0.01  -0.01     0.00   0.00   0.00     0.02  -0.01   0.02
    14   6    -0.01   0.01   0.00     0.00   0.00  -0.00     0.02  -0.02  -0.00
    15   6     0.01   0.00   0.00    -0.00  -0.00  -0.00     0.00  -0.02  -0.01
    16   6     0.01  -0.00  -0.00    -0.00  -0.00   0.00    -0.02  -0.01   0.00
    17   6     0.00   0.00  -0.01    -0.00   0.00   0.00    -0.00  -0.01   0.02
    18   1    -0.02   0.02  -0.01     0.00   0.00   0.00     0.03  -0.02   0.02
    19   1    -0.01   0.01   0.00     0.00   0.00  -0.00     0.04  -0.02  -0.01
    20   1     0.01  -0.00   0.01    -0.00  -0.00  -0.00    -0.00  -0.02  -0.02
    21   1     0.01   0.00  -0.01    -0.00   0.00   0.00    -0.02   0.00   0.03
    22  26     0.00   0.00  -0.02    -0.00  -0.00   0.00     0.01  -0.00   0.02
    23   6     0.01   0.00   0.00    -0.00  -0.00   0.00    -0.01  -0.01  -0.00
    24   1     0.00   0.01   0.00    -0.00  -0.00   0.00     0.00  -0.03   0.00
    25   1     0.01   0.00   0.00    -0.00  -0.00   0.00    -0.02  -0.01  -0.00
    26   6     0.03   0.01  -0.00    -0.00   0.00  -0.00    -0.03   0.01  -0.00
    27   1     0.02   0.01  -0.01     0.00  -0.00  -0.00    -0.00   0.00  -0.01
    28   1     0.06   0.00   0.02    -0.00   0.01  -0.00    -0.08   0.06  -0.02
    29   1     0.04   0.02  -0.02    -0.01  -0.00   0.00    -0.06  -0.02   0.05
    30  46    -0.04  -0.01   0.02     0.00   0.00  -0.00     0.06   0.02  -0.02
    31   8     0.01   0.00  -0.00     0.00  -0.01   0.00    -0.01  -0.01   0.01
    32   7    -0.01  -0.01  -0.02     0.00   0.01   0.00    -0.00   0.01   0.00
    33   6     0.01  -0.01  -0.01    -0.01  -0.00   0.00    -0.02   0.01   0.02
    34   6     0.00  -0.01  -0.01    -0.00   0.01  -0.01    -0.02   0.01   0.00
    35   6     0.00   0.01  -0.01    -0.00  -0.00  -0.01    -0.04  -0.02   0.01
    36   8     0.01  -0.01  -0.03    -0.00  -0.00   0.02    -0.01   0.01   0.06
    37   8     0.01   0.01   0.00    -0.01   0.02   0.02    -0.05  -0.03  -0.02
    38   1     0.01  -0.01   0.01     0.01   0.00   0.01    -0.01   0.02   0.00
    39   1     0.01  -0.02   0.01    -0.01   0.01  -0.00    -0.03   0.03  -0.00
    40   8     0.01   0.01  -0.01    -0.01  -0.03  -0.05    -0.05  -0.02   0.04
    41   6     0.03   0.00  -0.01    -0.03   0.01   0.00    -0.01  -0.04   0.01
    42   6     0.02   0.01  -0.01    -0.00  -0.00   0.00    -0.05  -0.01   0.01
    43   6     0.03   0.01  -0.00     0.04  -0.01   0.01    -0.03  -0.02   0.03
    44   6     0.05  -0.02   0.01    -0.01   0.02   0.02    -0.13   0.09  -0.04
    45   1     0.42  -0.01  -0.00     0.29   0.00  -0.00     0.25  -0.06   0.04
    46   1    -0.16  -0.34  -0.05    -0.20  -0.29  -0.01    -0.13  -0.27  -0.05
    47   1    -0.16   0.32   0.02    -0.20   0.28   0.02    -0.13   0.16   0.03
    48   1    -0.15  -0.14   0.33     0.17   0.11  -0.20    -0.20  -0.15   0.36
    49   1     0.43  -0.02  -0.03    -0.22  -0.00   0.03     0.34  -0.07   0.00
    50   1    -0.18   0.17  -0.27     0.19  -0.14   0.20    -0.23   0.14  -0.22
    51   1     0.02  -0.05   0.02    -0.02  -0.15  -0.31    -0.06   0.21  -0.05
    52   1     0.07  -0.02   0.01     0.19  -0.12   0.30    -0.24   0.11  -0.09
    53   1     0.07  -0.01   0.01    -0.20   0.35   0.07    -0.18   0.04  -0.05
    54   6     0.00   0.06  -0.01     0.00  -0.02  -0.01    -0.00  -0.08  -0.01
    55   1     0.00   0.13  -0.04     0.01  -0.05   0.00     0.01  -0.23   0.05
    56   1     0.01   0.03  -0.05    -0.01   0.00  -0.00    -0.04  -0.01   0.06
    57   1    -0.01   0.06   0.07     0.02  -0.02  -0.05     0.05  -0.08  -0.16
                     22                     23                     24
                      A                      A                      A
 Frequencies --    248.0127               259.3537               263.6125
 Red. masses --      4.5109                 2.5479                 2.2393
 Frc consts  --      0.1635                 0.1010                 0.0917
 IR Inten    --      0.0000                 0.0000                 0.0000
  Atom  AN      X      Y      Z        X      Y      Z        X      Y      Z
     1   6     0.10   0.01  -0.13    -0.01  -0.04   0.01     0.02  -0.05  -0.02
     2   6     0.04   0.05  -0.11    -0.01  -0.01   0.01     0.03  -0.04  -0.02
     3   6     0.16  -0.05  -0.03    -0.03  -0.00  -0.00     0.01  -0.05  -0.03
     4   6    -0.07   0.09  -0.08     0.01  -0.04   0.01    -0.00   0.03  -0.01
     5   6    -0.08   0.04   0.01     0.00  -0.01  -0.01    -0.01   0.06  -0.02
     6   6     0.06  -0.03   0.05    -0.02   0.01  -0.01    -0.00   0.01  -0.03
     7   1    -0.18   0.16  -0.14     0.03  -0.07   0.01    -0.00   0.06   0.01
     8   1    -0.16   0.06   0.06     0.02   0.00  -0.02    -0.01   0.10  -0.02
     9   1     0.07  -0.01   0.15    -0.02   0.01  -0.03    -0.01   0.03  -0.03
    10   1     0.06   0.10  -0.31    -0.01   0.00   0.04     0.03  -0.06   0.00
    11   7     0.01   0.05  -0.06     0.03  -0.02  -0.01     0.01  -0.03  -0.03
    12   1    -0.13   0.08  -0.02     0.00  -0.02  -0.00     0.06  -0.03  -0.02
    13   6     0.15  -0.07   0.03    -0.03   0.03   0.02     0.04  -0.03   0.01
    14   6     0.10  -0.01   0.02    -0.01   0.01   0.01     0.03  -0.01   0.03
    15   6     0.02   0.06   0.01     0.00  -0.03   0.01     0.02   0.02   0.02
    16   6     0.00   0.07   0.01    -0.01  -0.03   0.02     0.02   0.03   0.00
    17   6     0.09  -0.02   0.03    -0.03   0.01   0.03     0.05  -0.01   0.00
    18   1     0.21  -0.16   0.04    -0.03   0.06   0.02     0.05  -0.07   0.01
    19   1     0.09  -0.01   0.03    -0.00   0.02  -0.00     0.01  -0.01   0.04
    20   1    -0.03   0.10  -0.01     0.01  -0.04   0.00     0.02   0.03   0.04
    21   1     0.09  -0.02   0.03    -0.04   0.02   0.05     0.06  -0.01  -0.01
    22  26     0.02  -0.02   0.10     0.00   0.00  -0.01     0.01  -0.01   0.04
    23   6    -0.01   0.04  -0.00     0.05   0.00   0.00     0.01  -0.03  -0.01
    24   1    -0.00  -0.01  -0.01     0.07   0.05   0.06     0.00  -0.07  -0.03
    25   1    -0.03   0.03   0.04     0.09   0.00  -0.05    -0.00  -0.05   0.05
    26   6    -0.10  -0.05   0.01    -0.02   0.04   0.02    -0.03   0.09  -0.01
    27   1    -0.19  -0.04   0.19     0.31  -0.06  -0.21     0.31  -0.01  -0.30
    28   1    -0.16  -0.22  -0.08    -0.17   0.47   0.04    -0.18   0.57   0.03
    29   1    -0.04   0.03  -0.01    -0.26  -0.26   0.26    -0.27  -0.22   0.26
    30  46    -0.04   0.02  -0.03     0.01  -0.02  -0.04    -0.05  -0.02   0.00
    31   8    -0.07   0.01   0.01     0.01   0.05  -0.01     0.05   0.02   0.01
    32   7    -0.02  -0.07   0.02     0.03   0.00   0.11    -0.01   0.06  -0.00
    33   6    -0.02  -0.05   0.01     0.05   0.04   0.01    -0.00   0.05  -0.01
    34   6    -0.00  -0.07   0.04     0.08  -0.02   0.08    -0.04   0.05  -0.04
    35   6     0.01  -0.03   0.02     0.01  -0.03   0.06    -0.01   0.04  -0.02
    36   8     0.00  -0.06  -0.06     0.00   0.04  -0.08     0.02   0.05   0.02
    37   8     0.04  -0.04   0.04     0.01  -0.05   0.04    -0.01   0.03  -0.05
    38   1     0.13  -0.04  -0.15    -0.01  -0.04   0.03     0.02  -0.04  -0.04
    39   1    -0.00  -0.07   0.04     0.07  -0.06   0.04    -0.04   0.05  -0.04
    40   8    -0.01   0.01  -0.02    -0.02   0.00  -0.01     0.01   0.00   0.01
    41   6    -0.05   0.05  -0.01    -0.08   0.08  -0.01     0.05  -0.06   0.00
    42   6    -0.01   0.01  -0.01    -0.02   0.02  -0.02     0.01  -0.02   0.01
    43   6    -0.02   0.03  -0.03    -0.06   0.05  -0.05     0.05  -0.04   0.05
    44   6     0.03  -0.02   0.01     0.01  -0.00   0.00    -0.01   0.00  -0.01
    45   1     0.04   0.06  -0.04    -0.02   0.11  -0.07     0.00  -0.08   0.05
    46   1    -0.11  -0.03   0.03    -0.13   0.02   0.06     0.09  -0.02  -0.04
    47   1    -0.11   0.15  -0.01    -0.13   0.17  -0.02     0.09  -0.13   0.00
    48   1    -0.06  -0.02   0.01    -0.09  -0.01  -0.07     0.08   0.01   0.05
    49   1     0.05   0.05  -0.04    -0.04   0.10  -0.05     0.03  -0.09   0.04
    50   1    -0.06   0.06  -0.09    -0.09   0.08  -0.09     0.08  -0.07   0.08
    51   1    -0.00  -0.07   0.02    -0.01  -0.04   0.00     0.01   0.03  -0.02
    52   1     0.07  -0.03   0.02     0.04  -0.01   0.02    -0.04   0.01  -0.02
    53   1     0.05  -0.01   0.01     0.02   0.01   0.00    -0.03  -0.00  -0.01
    54   6    -0.03  -0.01   0.07     0.00  -0.01   0.15    -0.01  -0.03  -0.06
    55   1    -0.04   0.14   0.01    -0.06   0.03   0.10     0.02  -0.09  -0.02
    56   1     0.04  -0.10   0.03     0.02  -0.03   0.17    -0.01  -0.02  -0.03
    57   1    -0.11  -0.02   0.20    -0.03  -0.01   0.22    -0.02  -0.04  -0.14
                     25                     26                     27
                      A                      A                      A
 Frequencies --    278.5639               284.6315               311.7741
 Red. masses --      2.2661                 3.2846                 4.0047
 Frc consts  --      0.1036                 0.1568                 0.2293
 IR Inten    --      0.0000                 0.0000                 0.0000
  Atom  AN      X      Y      Z        X      Y      Z        X      Y      Z
     1   6     0.00   0.08  -0.03    -0.05   0.07   0.03     0.02  -0.04  -0.01
     2   6    -0.05   0.07  -0.04     0.03  -0.12   0.05     0.00  -0.06   0.05
     3   6     0.04   0.02   0.00    -0.03  -0.02  -0.01     0.01   0.04   0.04
     4   6    -0.01   0.01  -0.04     0.00   0.06   0.02    -0.09  -0.03   0.00
     5   6     0.01  -0.06  -0.01     0.02   0.04  -0.02    -0.13   0.02   0.09
     6   6     0.05  -0.06   0.01    -0.01   0.00  -0.03    -0.08   0.10   0.13
     7   1    -0.04   0.04  -0.05     0.02   0.08   0.05    -0.14  -0.05  -0.05
     8   1    -0.02  -0.11   0.00     0.03   0.08  -0.02    -0.15  -0.02   0.09
     9   1     0.06  -0.10   0.03    -0.02   0.02  -0.06    -0.06   0.09   0.21
    10   1    -0.04   0.17  -0.19     0.02  -0.22   0.17     0.00  -0.10   0.09
    11   7     0.01   0.04   0.01    -0.04  -0.09   0.01    -0.02  -0.06  -0.01
    12   1    -0.24   0.05   0.01     0.20  -0.11  -0.01     0.05  -0.06   0.03
    13   6     0.01   0.05   0.04     0.01  -0.07  -0.05    -0.02  -0.02  -0.07
    14   6     0.01   0.04  -0.03    -0.05   0.01   0.02     0.07  -0.12  -0.07
    15   6    -0.02  -0.04  -0.03    -0.01   0.10   0.02     0.04  -0.09  -0.07
    16   6    -0.03  -0.06   0.03     0.07   0.06  -0.04    -0.04  -0.00  -0.06
    17   6    -0.02  -0.02   0.07     0.08  -0.02  -0.09    -0.13   0.08  -0.08
    18   1     0.01   0.13   0.06     0.01  -0.17  -0.07    -0.03   0.01  -0.07
    19   1     0.05   0.07  -0.07    -0.09  -0.02   0.07     0.09  -0.14  -0.07
    20   1    -0.05  -0.06  -0.11     0.02   0.13   0.10     0.08  -0.12  -0.06
    21   1    -0.03  -0.02   0.13     0.11  -0.03  -0.16    -0.18   0.13  -0.08
    22  26    -0.02  -0.03  -0.03    -0.03  -0.00   0.01     0.07   0.08   0.03
    23   6     0.03   0.05   0.03    -0.05  -0.10  -0.02    -0.00  -0.04  -0.07
    24   1     0.07   0.12   0.13    -0.13  -0.21  -0.19    -0.01  -0.02  -0.06
    25   1     0.08   0.07  -0.09    -0.13  -0.15   0.18     0.03  -0.05  -0.06
    26   6     0.05  -0.01  -0.00     0.02   0.05  -0.04     0.01  -0.16  -0.03
    27   1     0.44  -0.13  -0.20     0.18   0.02  -0.26     0.30  -0.25  -0.09
    28   1    -0.05   0.40   0.05     0.02   0.32   0.05    -0.04   0.06  -0.01
    29   1    -0.22  -0.35   0.13    -0.08  -0.09   0.07    -0.18  -0.39  -0.01
    30  46     0.01   0.03   0.03     0.04   0.05   0.01     0.01   0.02   0.01
    31   8    -0.04  -0.03   0.02    -0.07  -0.03   0.02    -0.03   0.00   0.02
    32   7    -0.02  -0.05  -0.06    -0.00  -0.07  -0.03    -0.02  -0.03  -0.06
    33   6    -0.03  -0.06   0.00    -0.04  -0.08   0.01    -0.02  -0.02   0.01
    34   6    -0.03  -0.03  -0.02    -0.03  -0.06   0.00    -0.00  -0.01   0.00
    35   6    -0.00  -0.02  -0.02     0.00  -0.05   0.01    -0.01   0.00  -0.02
    36   8    -0.01  -0.06   0.02    -0.02  -0.09   0.01    -0.00  -0.03  -0.01
    37   8     0.00   0.00   0.01    -0.01  -0.03   0.04     0.00   0.01   0.02
    38   1    -0.06   0.06  -0.04    -0.05   0.08   0.07     0.14  -0.06  -0.04
    39   1    -0.02  -0.01   0.02    -0.03  -0.02   0.03     0.00  -0.00   0.03
    40   8     0.00  -0.00   0.00    -0.01  -0.01   0.00    -0.01  -0.00   0.00
    41   6     0.02   0.00   0.00    -0.00   0.06  -0.00     0.01   0.00   0.00
    42   6     0.01   0.00   0.00     0.01   0.01  -0.00     0.00  -0.00   0.00
    43   6     0.01   0.00  -0.00    -0.02   0.04  -0.05     0.01   0.00  -0.01
    44   6     0.02  -0.02   0.01     0.04  -0.02   0.02     0.02  -0.01   0.01
    45   1    -0.00   0.00   0.00    -0.00   0.08  -0.05     0.02   0.01  -0.00
    46   1     0.03   0.02  -0.01    -0.01   0.07   0.04     0.02   0.01  -0.01
    47   1     0.03  -0.02   0.01    -0.01   0.08   0.02     0.02   0.01   0.01
    48   1     0.01   0.01  -0.01    -0.04  -0.00  -0.08     0.01   0.01   0.00
    49   1    -0.00   0.01  -0.00    -0.02   0.09  -0.04     0.03   0.01  -0.01
    50   1     0.01  -0.00   0.00    -0.04   0.05  -0.07     0.01  -0.01  -0.02
    51   1     0.01  -0.03   0.02     0.01  -0.07   0.04     0.00  -0.03   0.02
    52   1     0.04  -0.01   0.01     0.08  -0.03   0.02     0.03  -0.01   0.00
    53   1     0.04  -0.02   0.01     0.08  -0.02   0.02     0.03  -0.02   0.01
    54   6     0.01   0.02  -0.05    -0.01  -0.00  -0.01     0.02   0.05  -0.00
    55   1     0.02  -0.00  -0.03     0.03   0.19  -0.06    -0.03  -0.13   0.04
    56   1    -0.03   0.05  -0.07     0.04  -0.10  -0.12    -0.09   0.20   0.07
    57   1     0.06   0.03  -0.06    -0.10  -0.01   0.13     0.20   0.10  -0.11
                     28                     29                     30
                      A                      A                      A
 Frequencies --    318.8892               331.3812               336.9789
 Red. masses --      4.8530                 2.5198                 2.6300
 Frc consts  --      0.2908                 0.1630                 0.1760
 IR Inten    --      0.0000                 0.0000                 0.0000
  Atom  AN      X      Y      Z        X      Y      Z        X      Y      Z
     1   6     0.07   0.16   0.02    -0.05   0.04   0.04    -0.01   0.01   0.01
     2   6     0.03  -0.05   0.07     0.06  -0.03   0.04     0.00  -0.00   0.01
     3   6     0.13   0.06   0.08    -0.04  -0.03   0.01    -0.01  -0.00   0.00
     4   6     0.00   0.14   0.03    -0.01   0.10   0.05     0.00   0.01   0.01
     5   6     0.06  -0.05   0.09     0.02   0.04  -0.00     0.00   0.01  -0.00
     6   6     0.14  -0.06   0.12    -0.01  -0.02  -0.02    -0.00  -0.00  -0.01
     7   1    -0.05   0.17  -0.00    -0.03   0.21   0.09     0.00   0.02   0.02
     8   1    -0.00  -0.12   0.12     0.04   0.06  -0.01     0.01   0.01  -0.00
     9   1     0.16  -0.12   0.17    -0.00  -0.04  -0.06    -0.00  -0.00  -0.01
    10   1     0.03  -0.08  -0.02     0.05  -0.00   0.12     0.00   0.00   0.02
    11   7    -0.02  -0.05   0.06     0.10  -0.03  -0.01     0.01  -0.00   0.00
    12   1    -0.01  -0.06   0.07     0.12  -0.03   0.01     0.01  -0.00   0.00
    13   6    -0.00   0.01  -0.08     0.08  -0.01  -0.02     0.01  -0.00  -0.00
    14   6    -0.05   0.07  -0.07     0.04   0.02  -0.08     0.00   0.00  -0.01
    15   6    -0.07   0.12  -0.07    -0.03  -0.00  -0.09    -0.00  -0.00  -0.01
    16   6     0.01   0.04  -0.05    -0.01  -0.05  -0.03    -0.00  -0.01  -0.00
    17   6     0.02   0.00  -0.08     0.01  -0.02   0.00     0.00  -0.00   0.00
    18   1     0.02  -0.02  -0.08     0.11  -0.01  -0.01     0.01   0.00  -0.00
    19   1    -0.05   0.05  -0.06     0.07   0.04  -0.11     0.01   0.00  -0.01
    20   1    -0.07   0.12  -0.07    -0.02  -0.04  -0.14    -0.00  -0.01  -0.02
    21   1     0.07  -0.04  -0.09    -0.02  -0.01   0.06    -0.00  -0.01   0.01
    22  26    -0.07   0.02  -0.01    -0.04  -0.02   0.02    -0.01  -0.00   0.00
    23   6     0.00  -0.03  -0.04     0.13  -0.00  -0.07     0.01  -0.00  -0.01
    24   1    -0.05  -0.00  -0.09     0.18   0.11   0.06     0.02   0.01   0.01
    25   1     0.01  -0.05   0.00     0.21   0.02  -0.21     0.02   0.00  -0.02
    26   6     0.05  -0.12   0.02     0.02   0.01   0.05     0.00   0.00   0.01
    27   1     0.23  -0.17  -0.03    -0.11   0.05   0.11    -0.01   0.01   0.01
    28   1     0.07   0.00   0.06    -0.02  -0.08  -0.00     0.00  -0.01   0.00
    29   1    -0.06  -0.26  -0.02     0.10   0.11   0.09     0.02   0.02   0.01
    30  46    -0.02  -0.04  -0.01    -0.01  -0.00  -0.00     0.00   0.00   0.00
    31   8     0.04  -0.02  -0.04     0.00   0.02   0.01    -0.00   0.00   0.00
    32   7     0.04   0.03   0.05    -0.02  -0.01  -0.04    -0.01  -0.01  -0.01
    33   6     0.04   0.01  -0.02     0.00   0.02   0.01    -0.01  -0.00  -0.00
    34   6     0.04   0.01   0.00    -0.02   0.01   0.00    -0.01  -0.00  -0.00
    35   6     0.06   0.02   0.01    -0.04  -0.02  -0.01    -0.01   0.03   0.06
    36   8     0.00   0.02  -0.02    -0.00   0.02  -0.00     0.00  -0.00  -0.00
    37   8     0.11   0.02  -0.03    -0.07  -0.01   0.00    -0.01  -0.00   0.01
    38   1    -0.09   0.09  -0.01    -0.11   0.03   0.05    -0.01  -0.00  -0.00
    39   1     0.02  -0.02  -0.05    -0.03   0.01  -0.03    -0.01   0.00   0.00
    40   8     0.04   0.05  -0.02    -0.03  -0.03   0.00     0.00   0.07   0.14
    41   6    -0.07  -0.09  -0.01     0.06   0.04   0.00    -0.17  -0.01   0.02
    42   6    -0.02   0.00  -0.00     0.00  -0.00   0.00    -0.00   0.01   0.02
    43   6    -0.04  -0.04   0.08     0.01   0.02  -0.04     0.19   0.03  -0.04
    44   6    -0.09   0.07  -0.04     0.04  -0.03   0.04    -0.00  -0.11  -0.17
    45   1    -0.06  -0.13   0.08     0.06   0.06  -0.04    -0.23  -0.02   0.03
    46   1    -0.09  -0.13  -0.02     0.08   0.07  -0.01    -0.25  -0.05   0.18
    47   1    -0.09  -0.10  -0.08     0.08   0.04   0.06    -0.26   0.02  -0.15
    48   1    -0.04  -0.03   0.13     0.01   0.01  -0.07     0.28   0.18   0.01
    49   1    -0.05  -0.14   0.07     0.00   0.07  -0.03     0.26   0.05  -0.04
    50   1    -0.04  -0.01   0.14     0.01   0.00  -0.05     0.27  -0.16  -0.13
    51   1    -0.02   0.16  -0.10     0.00  -0.08   0.07    -0.02  -0.15  -0.22
    52   1    -0.17   0.07  -0.04     0.07  -0.04   0.05     0.15  -0.04  -0.32
    53   1    -0.18   0.07  -0.04     0.10  -0.02   0.04    -0.14  -0.26  -0.18
    54   6    -0.04  -0.02   0.07    -0.06   0.01   0.05    -0.01   0.00  -0.01
    55   1    -0.11  -0.08   0.05    -0.18  -0.37   0.12    -0.00  -0.02   0.00
    56   1    -0.03   0.01   0.14    -0.19   0.26   0.25    -0.02   0.02  -0.00
    57   1    -0.02  -0.02   0.05     0.21   0.07  -0.19     0.02   0.01  -0.02
                     31                     32                     33
                      A                      A                      A
 Frequencies --    353.2407               360.8489               367.3207
 Red. masses --      1.7523                 4.1075                 5.2312
 Frc consts  --      0.1288                 0.3151                 0.4159
 IR Inten    --      0.0000                 0.0000                 0.0000
  Atom  AN      X      Y      Z        X      Y      Z        X      Y      Z
     1   6    -0.01   0.00   0.02    -0.01  -0.10   0.02     0.08  -0.04   0.03
     2   6     0.04  -0.01   0.01     0.02  -0.03  -0.01     0.03   0.00  -0.00
     3   6    -0.02  -0.00  -0.00    -0.06  -0.06  -0.03     0.08  -0.00   0.03
     4   6    -0.01   0.04   0.03     0.00  -0.07   0.03     0.05  -0.03   0.04
     5   6    -0.01   0.05   0.00    -0.02   0.01  -0.02     0.06  -0.05   0.06
     6   6    -0.02   0.02  -0.01    -0.07   0.01  -0.04     0.08  -0.04   0.07
     7   1     0.02  -0.01   0.02     0.02  -0.05   0.06     0.06  -0.08   0.02
     8   1     0.01   0.06  -0.00     0.01   0.07  -0.04     0.04  -0.07   0.07
     9   1    -0.02   0.01  -0.02    -0.08   0.04  -0.06     0.08  -0.05   0.09
    10   1     0.04   0.00   0.07     0.02  -0.02   0.08     0.03  -0.01  -0.06
    11   7     0.07  -0.01  -0.03     0.05  -0.02  -0.07     0.02   0.01  -0.07
    12   1     0.09  -0.01  -0.01     0.09  -0.01  -0.03    -0.01   0.03   0.03
    13   6     0.00   0.00  -0.00    -0.00   0.03   0.01    -0.07   0.07  -0.01
    14   6     0.01  -0.01  -0.05    -0.02   0.04  -0.01    -0.06   0.07  -0.00
    15   6    -0.04  -0.05  -0.05    -0.03   0.01  -0.01    -0.07   0.07  -0.01
    16   6    -0.06  -0.05  -0.01    -0.02  -0.01  -0.00    -0.04   0.04  -0.01
    17   6    -0.05  -0.01   0.01    -0.00  -0.00   0.02    -0.02   0.01  -0.01
    18   1     0.05   0.03   0.03    -0.01   0.05   0.01    -0.10   0.11  -0.01
    19   1     0.03   0.00  -0.07    -0.03   0.08  -0.03    -0.07   0.08  -0.01
    20   1    -0.03  -0.08  -0.09    -0.04   0.02  -0.02    -0.08   0.08  -0.01
    21   1    -0.01  -0.05   0.03    -0.02   0.00   0.04     0.06  -0.05  -0.01
    22  26    -0.02   0.01   0.02    -0.02  -0.02   0.00    -0.03   0.02  -0.00
    23   6     0.07  -0.00  -0.04     0.07  -0.01  -0.04    -0.02  -0.03  -0.02
    24   1     0.13   0.07   0.08     0.11   0.03   0.04     0.00  -0.10  -0.03
    25   1     0.13   0.02  -0.16     0.12  -0.00  -0.09    -0.06  -0.03   0.04
    26   6     0.01  -0.02   0.02    -0.03   0.03  -0.02    -0.05  -0.06  -0.03
    27   1    -0.00  -0.02   0.06    -0.12   0.06   0.01    -0.01  -0.08   0.04
    28   1    -0.05  -0.04  -0.03    -0.08  -0.01  -0.07    -0.12  -0.08  -0.09
    29   1     0.01  -0.02   0.05     0.03   0.10   0.06    -0.07  -0.09  -0.01
    30  46    -0.00   0.01   0.00     0.01   0.03   0.00     0.03  -0.03  -0.03
    31   8     0.01  -0.02  -0.01    -0.07   0.05   0.12    -0.01   0.18   0.20
    32   7     0.02   0.02   0.05    -0.01  -0.06  -0.03    -0.11  -0.03   0.00
    33   6    -0.01  -0.01  -0.02    -0.04  -0.07   0.06    -0.09   0.11   0.09
    34   6     0.01  -0.01  -0.02    -0.04  -0.05   0.08    -0.17   0.01   0.08
    35   6     0.01   0.00   0.02     0.07   0.04  -0.03    -0.08  -0.02   0.01
    36   8     0.00  -0.01   0.02     0.05  -0.09  -0.11     0.11   0.06  -0.09
    37   8     0.01  -0.01  -0.01     0.13   0.06   0.02     0.00  -0.04  -0.00
    38   1    -0.01  -0.00   0.02     0.05  -0.05   0.04    -0.01  -0.13   0.00
    39   1     0.01   0.00   0.02    -0.04   0.00   0.12    -0.15   0.04   0.16
    40   8     0.01   0.00  -0.00     0.06   0.11  -0.07    -0.07  -0.02   0.01
    41   6    -0.01  -0.00  -0.00    -0.06  -0.14  -0.06     0.09   0.04   0.01
    42   6     0.00   0.00  -0.00     0.02   0.07  -0.04    -0.05  -0.01   0.00
    43   6    -0.01  -0.00   0.01    -0.04  -0.02   0.15     0.06   0.00  -0.04
    44   6    -0.01   0.01  -0.00     0.02   0.07  -0.04     0.01  -0.08   0.06
    45   1    -0.01  -0.00   0.00    -0.09  -0.23   0.15     0.14   0.06  -0.04
    46   1    -0.02  -0.01   0.01    -0.08  -0.19  -0.12     0.13   0.06  -0.08
    47   1    -0.02  -0.00  -0.01    -0.07  -0.21  -0.22     0.13   0.04   0.14
    48   1    -0.02  -0.01   0.00    -0.04   0.01   0.22     0.10   0.07  -0.02
    49   1    -0.02  -0.01   0.01    -0.09  -0.25   0.12     0.11   0.05  -0.04
    50   1    -0.02   0.01   0.02    -0.02   0.05   0.30     0.09  -0.09  -0.11
    51   1     0.00   0.03  -0.01     0.03   0.09  -0.06    -0.05  -0.16   0.11
    52   1    -0.02   0.01   0.00    -0.01   0.07  -0.04     0.08  -0.08   0.06
    53   1    -0.02   0.02  -0.00    -0.01   0.07  -0.04     0.10  -0.07   0.05
    54   6     0.05  -0.05  -0.08     0.02   0.02   0.05     0.02  -0.01  -0.11
    55   1     0.22   0.45  -0.17     0.02  -0.14   0.10     0.26   0.13  -0.03
    56   1     0.27  -0.40  -0.31    -0.08   0.15   0.06     0.03  -0.10  -0.33
    57   1    -0.34  -0.16   0.23     0.19   0.07  -0.06    -0.05  -0.04  -0.11
                     34                     35                     36
                      A                      A                      A
 Frequencies --    392.0943               409.5745               416.1033
 Red. masses --      5.4891                 2.6990                 3.2855
 Frc consts  --      0.4972                 0.2668                 0.3352
 IR Inten    --      0.0000                 0.0000                 0.0000
  Atom  AN      X      Y      Z        X      Y      Z        X      Y      Z
     1   6    -0.08   0.15  -0.03    -0.00  -0.05   0.03     0.02  -0.06  -0.01
     2   6    -0.13   0.03   0.05     0.08   0.15  -0.03    -0.01   0.03  -0.00
     3   6    -0.07   0.12   0.01    -0.04   0.04  -0.01    -0.02   0.02  -0.01
     4   6    -0.07   0.16  -0.05     0.04  -0.03   0.03     0.00  -0.00   0.01
     5   6    -0.05   0.09  -0.04     0.02   0.04  -0.01    -0.02   0.05  -0.01
     6   6    -0.03   0.06  -0.02    -0.05   0.06  -0.03    -0.03   0.04  -0.02
     7   1    -0.09   0.19  -0.05     0.07  -0.06   0.05     0.02  -0.01   0.02
     8   1    -0.06   0.06  -0.03     0.06   0.07  -0.03    -0.01   0.10  -0.02
     9   1    -0.02   0.02  -0.05    -0.06   0.12  -0.05    -0.04   0.08  -0.02
    10   1    -0.12   0.08  -0.03     0.08   0.19   0.00    -0.01   0.07  -0.04
    11   7    -0.09  -0.02   0.19     0.12   0.13   0.00     0.01   0.01   0.05
    12   1    -0.22  -0.05   0.02     0.06   0.13  -0.04    -0.06  -0.00  -0.01
    13   6     0.06  -0.10  -0.01     0.02  -0.08  -0.03     0.01  -0.04  -0.02
    14   6     0.06  -0.11  -0.01    -0.03  -0.02  -0.03    -0.02  -0.00  -0.02
    15   6     0.07  -0.12  -0.00    -0.05   0.03  -0.03    -0.03  -0.00  -0.03
    16   6     0.06  -0.11   0.02    -0.01  -0.02   0.00    -0.00  -0.05  -0.00
    17   6     0.05  -0.10   0.00     0.02  -0.07  -0.02     0.02  -0.07  -0.01
    18   1     0.09  -0.15  -0.01     0.07  -0.15  -0.02     0.03  -0.06  -0.01
    19   1     0.06  -0.12  -0.01    -0.05  -0.03  -0.01    -0.05   0.02  -0.03
[...]
 0024188,0.00005807,0.00031567,0.00008178,-0.00006522,-0.00001902,0.000
 02451,0.00002843,0.00002510,0.00006666,-0.00004542,-0.00027005,-0.0003
 6014,-0.00009171,0.00045091,-0.00037030,-0.00004331,0.00021723,-0.0000
 2347,0.00002175,0.00001079,-0.00001743,0.00002264,-0.00002616,-0.00005
 785,0.00025189,-0.00015979,0.00006252,-0.00012703,-0.00030298,0.000044
 08,-0.00000211,-0.00006053,-0.00000596,0.00001413,0.00000317,-0.000001
 38,0.00001350,-0.00005237,0.00000163,-0.00000613,-0.00002670,-0.000020
 27,0.00001491,-0.00000189,-0.00000443,0.00000334,0.00001193,-0.0000122
 5,0.00000542,0.00000201,-0.00038718,-0.00005089,0.00027717,0.00150475,
 0.00010702,-0.00108471,0.00024941,0.00037261,0.00032529,-0.00297189,-0
 .00153372,-0.00134970,0.00592225,0.00694827,-0.01964497,-0.00009856,-0
 .00007762,-0.00007029,0.00048597,0.00095796,0.00018721,0.00006404,-0.0
 0003998,0.00008241,-0.00003049,-0.00002850,-0.00009573,0.00120241,0.00
 043414,-0.00073317,-0.00000758,0.00000743,0.00009470,-0.00000471,0.000
 00092,0.00000369,-0.00000661,-0.00001083,-0.00005954,0.00000629,-0.000
 00231,-0.00000383,-0.00000067,0.00000995,-0.00000821,0.00000933,-0.000
 00074,0.00001010,-0.00000038,-0.00000014,0.00000769,-0.00000574,0.0000
 1067,0.00001123,0.00000087,0.00000576,0.00000820,-0.00000206,-0.000021
 10,0.00000623,0.00000035,0.00000828,0.00000997,0.00000961,0.00000684,0
 .00001494,0.00000734,0.00000152,-0.00000022,-0.00002277,-0.00000801,0.
 00000458,-0.09084171,-0.03442256,0.09224553,0.10395504,-0.00002091,-0.
 00003539,-0.00004958,-0.00001885,-0.00003342,-0.00001411,-0.00004576,0
 .00003533,0.00005649,0.00004490,-0.00012642,-0.00013528,-0.00003645,0.
 00006469,0.00004649,-0.00003605,-0.00004610,0.00002567,0.00020069,-0.0
 0030819,-0.00016130,0.00001543,0.00000889,-0.00000320,-0.00001896,-0.0
 0002293,0.00003650,-0.00002691,-0.00001290,-0.00001178,-0.00003615,0.0
 0005858,0.00007366,-0.00001128,0.00000437,0.00001078,0.00015032,-0.000
 01190,0.00003940,-0.00005198,0.00006530,0.00000908,0.00006654,-0.00004
 317,0.00001264,-0.00009547,0.00011865,0.00002069,0.00017719,-0.0000145
 9,-0.00003497,0.00000368,0.00004806,-0.00006388,-0.00000754,0.00001823
 ,-0.00000669,0.00003493,0.00001235,0.00000180,0.00018787,-0.00016224,-
 0.00013209,0.00001248,-0.00006276,0.00009000,0.00000498,0.00001504,-0.
 00001019,-0.00002011,0.00000614,0.00000420,-0.00000110,-0.00001280,0.0
 0000353,-0.00001203,-0.00000211,-0.00005877,-0.00000089,0.00000031,-0.
 00000317,-0.00000305,-0.00000024,0.00001875,-0.00001680,-0.00001086,0.
 00000968,0.00019095,-0.00010119,0.00003105,-0.00021206,0.00001555,0.00
 011408,0.00003470,0.00025162,-0.00004702,0.00066940,0.00027107,0.00050
 431,0.00103651,0.00041083,0.00226731,-0.00034409,-0.00014545,-0.000124
 47,-0.00001914,0.00002319,-0.00013367,-0.00005986,0.00007168,0.0000768
 8,0.00003463,0.00003593,-0.00000407,0.00010568,0.00025026,0.00023473,0
 .00021154,-0.00005756,-0.00000160,0.00001543,-0.00000126,0.00000631,-0
 .00011680,-0.00003283,-0.00003465,0.00001509,0.00000516,-0.00000358,0.
 00000864,0.00000353,0.00000866,-0.00000240,-0.00000389,0.00000566,0.00
 000815,0.00000457,0.00000813,-0.00000219,-0.00000450,-0.00001197,0.000
 01268,0.00000780,0.00001464,-0.00002512,0.00000109,0.00000535,-0.00000
 186,-0.00001803,-0.00000812,0.00000679,-0.00000259,-0.00000132,0.00000
 470,-0.00000488,0.00001323,-0.00000184,0.00001894,-0.00001045,-0.03419
 408,-0.06733635,0.06038461,0.03939513,0.07377434,-0.00008718,-0.000275
 79,0.00003502,-0.00005788,0.00010798,0.00004542,-0.00009356,0.00002881
 ,0.00001558,0.00017114,0.00008939,-0.00024565,0.00012148,-0.00000220,0
 .00007856,-0.00006066,0.00001011,0.00002342,0.00011803,-0.00048031,0.0
 0013822,0.00004051,-0.00000324,0.00000625,-0.00003205,0.00004494,0.000
 02092,-0.00000562,0.00001119,0.00003132,0.00001790,-0.00000248,-0.0000
 0815,-0.00000973,-0.00000320,0.00000687,0.00007905,-0.00007163,-0.0002
 1551,-0.00001734,0.00000385,-0.00002340,-0.00010792,0.00005595,-0.0000
 1082,-0.00007041,0.00000755,0.00014438,0.00024376,-0.00001198,-0.00022
 495,0.00029300,-0.00000731,0.00002278,-0.00000527,-0.00002740,-0.00000
 393,-0.00003413,-0.00002377,0.00001368,-0.00001244,-0.00012102,-0.0000
 9547,-0.00041359,0.00035129,0.00040378,-0.00006212,-0.00001637,0.00007
 752,0.00002069,-0.00002129,-0.00000452,-0.00003398,-0.00003240,0.00005
 603,0.00000704,0.00002007,0.00010387,-0.00000478,-0.00003717,0.0000619
 9,0.00002525,-0.00001244,-0.00001957,0.00002736,0.00003752,0.00001037,
 0.00000460,0.00064329,-0.00086493,0.00173695,-0.00036209,-0.00105852,-
 0.00017811,-0.00048317,0.00110282,-0.00460181,-0.00217777,-0.00124616,
 0.00412304,0.00890209,-0.02678413,0.00029435,0.00017426,-0.00085514,0.
 00042165,0.00129920,0.00015824,-0.00005463,-0.00019966,0.00024200,0.00
 014324,-0.00005025,-0.00012543,0.00048135,0.00002560,0.00132647,-0.000
 48109,0.00001908,0.00039107,-0.00001094,0.00000444,0.00000650,0.000057
 31,0.00010290,-0.00013247,0.00001836,-0.00001185,-0.00000236,-0.000000
 76,0.00001143,-0.00001434,0.00002554,-0.00000990,0.00002143,-0.0000105
 9,-0.00000587,0.00001393,0.00001333,0.00002102,0.00000951,0.00002327,0
 .00001499,0.00000877,-0.00003511,-0.00003497,0.00006444,0.00001588,-0.
 00000571,-0.00002958,0.00001152,0.00000261,0.00000674,0.00001320,-0.00
 000375,-0.00001116,-0.00004418,-0.00000239,0.00005127,0.09298146,0.062
 36057,-0.20706159,-0.10264876,-0.07316886,0.24125094,-0.00104261,-0.00
 040668,-0.00055118,-0.00001042,-0.00047407,-0.00064670,0.00067782,-0.0
 0078911,-0.00034947,-0.00004650,0.00117467,0.00063673,-0.00009476,-0.0
 0059107,0.00066841,-0.00010649,-0.00030468,-0.00042188,0.00024234,-0.0
 0043791,0.00068639,-0.00009834,-0.00024884,0.00024853,-0.00002272,-0.0
 0036766,-0.00013525,-0.00005515,-0.00015895,-0.00018779,-0.00048347,0.
 00002807,-0.00075825,0.00004460,-0.00003453,-0.00007971,-0.00602743,0.
 00135304,-0.00009429,0.00021254,0.00083460,0.00036338,0.00059289,0.000
 45135,-0.00002919,0.00034807,0.00028921,-0.00023001,-0.00370948,-0.000
 64490,0.00427283,-0.00465813,-0.00031967,-0.00245619,0.00032684,0.0001
 6117,0.00018206,0.00028064,-0.00004665,-0.00021847,-0.00068162,-0.0003
 8934,0.00112104,0.00091593,-0.00414683,-0.00125179,0.00022238,0.000350
 30,-0.00058498,-0.00003418,-0.00002106,-0.00014069,-0.00000109,0.00003
 177,-0.00009537,0.00007114,0.00000088,0.00005825,0.00001892,-0.0000610
 9,-0.00004110,-0.00005204,0.00000385,0.00002560,0.00008095,0.00004412,
 -0.00010213,0.00223353,0.00003064,-0.00155208,-0.00017673,-0.00001760,
 -0.00017048,0.00104567,0.00094467,0.00249640,-0.00033722,0.00120009,-0
 .00011157,-0.02079800,0.01181675,-0.00048125,-0.00213150,-0.00083030,-
 0.00074522,0.00014216,-0.00033657,0.00017677,-0.00028405,0.00083248,0.
 00046584,0.00022182,-0.00057645,-0.00010946,-0.00248751,0.00023237,-0.
 00352543,0.00092936,-0.00016107,-0.00013182,0.00002412,0.00002129,0.00
 000136,-0.00010626,0.00001164,-0.00006978,0.00003863,0.00001230,0.0000
 1794,0.00002314,0.00001754,0.00001000,0.00000516,-0.00000345,0.0000138
 1,0.00001297,0.00000800,0.00001944,-0.00000355,-0.00001432,-0.00003703
 ,0.00003075,0.00001995,0.00000813,-0.00002458,-0.00000063,0.00001919,-
 0.00000791,-0.00004896,-0.00001832,0.00001525,-0.00001287,-0.00000313,
 0.00002380,-0.00000515,0.00002011,0.00000478,0.00001923,-0.00000403,-0
 .15320726,0.09794321,0.04098260,-0.01218395,0.00950976,0.00715836,0.19
 203623,0.00037185,-0.00049488,-0.00052998,-0.00012493,0.00039462,0.000
 67408,-0.00016843,0.00072253,0.00040301,0.00115783,-0.00231131,-0.0004
 3835,0.00061841,0.00044443,-0.00033596,-0.00009531,0.00048000,0.000102
 51,-0.00056988,-0.00322631,0.00079645,0.00013831,0.00021657,-0.0001816
 5,-0.00021100,0.00025793,0.00015566,-0.00008071,0.00002598,0.00021745,
 0.00019443,0.00006568,0.00085398,-0.00005881,-0.00002377,0.00008813,0.
 00177231,-0.00042899,-0.00039182,-0.00087976,-0.00001328,-0.00021261,-
 0.00042131,-0.00025006,0.00009179,-0.00090640,0.00003366,0.00101573,0.
 00130003,-0.00020515,-0.00092791,0.00023945,0.00110909,-0.00065948,-0.
 00025611,-0.00013108,-0.00016160,-0.00008451,-0.00007302,0.00011011,-0
 .00081397,-0.00119692,0.00141675,-0.00309058,0.00101396,0.00086400,-0.
 00016109,-0.00020925,0.00053639,-0.00001081,-0.00000127,0.00000498,-0.
 00000615,-0.00005808,0.00016047,-0.00004665,0.00001584,-0.00002550,-0.
 00000898,0.00005900,0.00005106,0.00003182,-0.00001618,-0.00001048,-0.0
 0007514,-0.00006617,0.00003001,0.00009447,0.00160796,-0.00048089,-0.00
 036846,-0.00014484,0.00033566,-0.00334160,0.00033923,-0.00166078,0.000
 84846,-0.00132896,0.00004220,0.00373906,-0.00097133,0.00052648,0.00011
 332,0.00058810,-0.00014825,-0.00012637,0.00018816,0.00007794,0.0000410
 0,-0.00029076,0.00005176,0.00020247,0.00007000,-0.00004124,-0.00012195
 ,0.00018337,0.00015525,-0.00029505,-0.00006007,0.00001741,-0.00000902,
 -0.00000800,-0.00000410,-0.00002151,-0.00002077,0.00001848,-0.00002173
 ,-0.00001426,0.00000007,-0.00001955,-0.00001079,-0.00000463,0.00000177
 ,-0.00000825,0.00000485,0.00000502,-0.00000589,-0.00000339,-0.00001235
 ,0.00000233,0.00000725,0.00000440,-0.00000513,-0.00000154,0.00000212,0
 .00000524,-0.00000133,-0.00000719,0.00000481,0.00000002,0.00000027,0.0
 0000093,-0.00000314,0.00000036,-0.00001096,-0.00000382,0.00000254,-0.0
 0000460,-0.00000321,0.09732123,-0.12820038,-0.03341622,-0.00664441,0.0
 0621228,0.00224753,-0.10999036,0.14666915,0.00064150,-0.00048033,-0.00
 000612,0.00004244,0.00012385,0.00030083,-0.00008928,0.00024013,-0.0000
 8430,0.00028546,-0.00057690,0.00047645,-0.00022424,0.00037682,-0.00000
 660,-0.00014584,-0.00003748,-0.00005117,0.00045003,0.00081738,0.000390
 71,-0.00020324,0.00030026,-0.00014595,-0.00000494,0.00005238,-0.000068
 55,-0.00002148,0.00011161,0.00008908,0.00008709,-0.00010590,0.00015518
 ,0.00000661,0.00003866,0.00006299,0.00106021,-0.00068781,0.00153779,-0
 .00045524,0.00024141,0.00006716,-0.00024727,-0.00011513,-0.00015523,0.
 00040558,-0.00034018,-0.00033364,0.00265717,0.00026827,-0.00128666,-0.
 00216949,-0.00040216,-0.00040162,-0.00024483,0.00010640,-0.00002465,-0
 .00012007,0.00005004,-0.00008417,0.00165709,0.00124897,-0.00105357,-0.
 00142316,0.00219046,-0.00193475,0.00004915,-0.00021201,0.00010498,-0.0
 0005086,0.00001252,0.00009197,0.00004306,0.00002451,-0.00006039,-0.000
 00645,-0.00002978,-0.00005481,-0.00000289,-0.00000675,-0.00003473,-0.0
 0000158,0.00001810,0.00002997,0.00001103,0.00000243,-0.00002383,-0.000
 55974,-0.00146650,-0.00333114,0.00050181,-0.00006915,-0.00031028,-0.00
 161791,0.00114907,0.00088153,-0.00147021,-0.00033599,0.00142034,-0.017
 37326,0.01230004,0.00293525,-0.00082135,-0.00001143,0.00010357,0.00026
 760,0.00019182,-0.00011812,0.00027642,0.00032747,0.00005061,-0.0001337
 2,-0.00012427,-0.00003782,-0.00261447,-0.00036993,-0.00260310,0.000291
 36,-0.00020222,-0.00007324,-0.00000315,0.00000024,-0.00001226,0.000002
 98,0.00000115,-0.00001282,0.00000295,-0.00000860,0.00000806,-0.0000054
 6,0.00000324,-0.00000092,0.00000162,-0.00000029,0.00001131,0.00001300,
 0.00000202,-0.00000113,-0.00002181,-0.00000381,-0.00000228,0.00000504,
 0.00000457,-0.00000619,0.00000978,-0.00000018,-0.00001305,-0.00001161,
 -0.00000719,0.00001365,0.00000448,-0.00000692,-0.00000278,0.00001590,-
 0.00000219,0.00001020,0.00000966,0.00000050,-0.00001623,0.03960333,-0.
 03288598,-0.05612269,0.02121110,-0.01609418,-0.00876666,-0.04221000,0.
 03687030,0.06894302,0.00007853,0.00004903,-0.00010014,-0.00001192,0.00
 000434,0.00005752,0.00004271,-0.00000316,0.00004917,0.00000303,0.00025
 494,-0.00001732,0.00009336,-0.00006004,-0.00003868,-0.00007644,0.00004
 527,-0.00006269,-0.00015687,-0.00004756,0.00013290,0.00002885,-0.00000
 869,0.00002748,-0.00001501,0.00002651,-0.00001145,0.00001426,-0.000005
 34,0.00001604,0.00003410,-0.00003525,-0.00004737,0.00000508,-0.0000067
 0,0.00000366,-0.00013470,-0.00013971,0.00011733,0.00002397,0.00005176,
 -0.00006493,0.00000656,-0.00003401,-0.00001148,0.00011533,-0.00003128,
 0.00003057,-0.00022603,-0.00004560,0.00000517,-0.00009450,0.00031568,-
 0.00012580,0.00002386,-0.00001667,-0.00001135,-0.00001669,-0.00003086,
 -0.00001206,-0.00003932,0.00017737,0.00047762,-0.00017566,-0.00006519,
 0.00016072,-0.00000821,-0.00002627,-0.00001003,0.00000555,0.00000295,-
 0.00001691,0.00001546,-0.00000760,0.00000235,0.00001272,-0.00000037,0.
 00008798,0.00000792,-0.00002870,0.00000201,-0.00000429,0.00000355,-0.0
 0001054,0.00000617,0.00001505,-0.00000165,-0.00025385,0.00016019,0.000
 01847,-0.00044240,0.00012086,0.00018551,-0.00336872,-0.00194608,-0.003
 49242,0.00115640,-0.00162983,-0.00029325,-0.00652870,-0.01695624,-0.00
 462411,0.00057995,-0.00011922,-0.00074828,-0.00033731,0.00077449,0.000
 85863,-0.00007178,-0.00059256,0.00006383,-0.00013612,-0.00005702,-0.00
 007491,-0.00061923,0.00004215,-0.00031891,-0.00003467,0.00014095,0.000
 06359,-0.00002607,-0.00001622,-0.00003185,0.00012614,-0.00000014,0.000
 03311,-0.00002692,-0.00003684,0.00000585,-0.00003147,0.00000250,0.0000
 0411,0.00000927,-0.00000106,0.00000732,-0.00001270,-0.00000358,0.00000
 041,0.00000726,0.00001836,0.00002586,-0.00001559,-0.00000394,-0.000005
 95,0.00001385,0.00001410,-0.00001019,0.00000579,0.00003546,-0.00000163
 ,-0.00000322,-0.00000208,-0.00000314,0.00000786,-0.00000235,-0.0000041
 3,0.00001521,-0.00000450,-0.00000183,-0.07191492,-0.07792133,-0.009354
 84,-0.00616787,-0.01671906,0.00048605,0.00805050,0.02084915,0.00264011
 ,0.08046147,0.00032413,0.00002728,0.00008359,0.00001151,0.00005373,0.0
 0003002,-0.00015764,0.00011616,0.00004566,-0.00002371,-0.00025578,0.00
 000375,-0.00003907,0.00001910,-0.00016187,0.00001884,0.00009664,0.0000
 9262,0.00003637,-0.00002566,-0.00024122,-0.00000456,-0.00000040,-0.000
 04728,0.00000404,0.00002960,-0.00000285,0.00000665,0.00001238,-0.00000
 152,0.00008718,-0.00007703,-0.00009991,-0.00000820,0.00001268,0.000018
 63,0.00002152,0.00013768,-0.00015996,-0.00002759,-0.00004887,0.0001296
 8,-0.00005690,0.00008491,0.00010007,-0.00008712,0.00009460,-0.00013301
 ,-0.00008976,-0.00002983,0.00011454,0.00044127,-0.00045530,0.00030730,
 -0.00005124,-0.00000021,-0.00001462,-0.00004688,0.00004307,0.00003353,
 0.00024410,0.00022687,-0.00058152,-0.00031628,0.00021294,0.00032311,-0
 .00003813,-0.00002873,0.00000022,0.00001626,0.00001622,0.00002327,-0.0
 0000196,0.00000226,-0.00003215,0.00000147,-0.00000508,0.00004863,-0.00
 000677,-0.00002346,0.00000769,0.00001011,0.00000022,-0.00000948,0.0000
 4889,0.00004098,0.00002127,-0.00039547,-0.00080708,-0.00045973,0.00031
 289,-0.00003630,-0.00035027,-0.00170715,-0.00035365,-0.00170468,-0.000
 05533,-0.00008715,0.00019079,-0.00163823,-0.00103958,-0.00263423,0.000
 41019,0.00029588,0.00002673,-0.00012151,0.00082569,-0.00004818,0.00021
 936,-0.00020788,-0.00012166,-0.00025299,0.00025291,0.00005604,-0.00005
 726,-0.00011169,0.00002432,-0.00020708,0.00002947,0.00001294,-0.000018
 69,-0.00000293,-0.00002397,0.00012347,0.00001966,0.00007919,-0.0000236
 6,-0.00002362,0.00000875,-0.00001570,0.00000878,0.00000537,0.00000072,
 0.00000347,-0.00000358,-0.00001264,-0.00000090,-0.00000473,0.00001052,
 0.00000760,0.00001892,-0.00002080,-0.00000606,-0.00000345,0.00002020,0
 .00001218,-0.00002070,0.00000855,0.00003215,0.00001006,-0.00001269,0.0
 0000094,-0.00000079,-0.00000254,0.00000989,-0.00000869,0.00001156,-0.0
 0000417,0.00000005,-0.07856653,-0.25275587,-0.02876023,-0.00592396,-0.
 01319924,0.00106860,-0.00590218,-0.02092014,-0.00249138,0.09350040,0.2
 8778072,0.00022764,0.00018439,0.00016074,-0.00000756,0.00001816,0.0000
 2790,-0.00006156,0.00004628,0.00000988,0.00005417,-0.00004531,-0.00004
 262,-0.00003649,0.00004233,0.00000237,-0.00004409,0.00001518,-0.000006
 44,0.00011204,-0.00011328,-0.00010315,-0.00000691,0.00002555,-0.000014
 37,-0.00000049,0.00000820,0.00000180,-0.00000380,0.00001630,0.00000502
 ,0.00003084,-0.00008476,0.00000750,-0.00000523,0.00001988,0.00001715,-
 0.00000033,-0.00002520,0.00021991,-0.00001014,0.00001589,-0.00006242,-
 0.00004391,0.00003482,0.00003845,0.00000162,-0.00000279,-0.00014595,0.
 00014309,-0.00007980,0.00007894,-0.00006183,0.00008839,0.00010937,-0.0
 0004251,0.00002630,-0.00001556,-0.00003466,0.00003200,-0.00000894,0.00
 057209,-0.00020279,-0.00060716,-0.00017089,0.00021728,0.00005135,0.000
 00113,-0.00003426,0.00000294,-0.00000669,0.00002064,0.00001600,0.00000
 234,-0.00000497,-0.00003835,-0.00000101,-0.00000276,0.00002499,-0.0000
 1009,-0.00001225,0.00000342,0.00000386,0.00001028,0.00000920,0.0000046
 4,0.00002490,0.00002506,-0.00027788,-0.00066733,-0.00042858,-0.0001371
 5,0.00035475,0.00040264,-0.00455759,-0.00262439,-0.00444904,-0.0006361
 8,-0.00260539,-0.00079380,-0.00767392,-0.01799809,-0.00440994,0.000332
 47,-0.00030487,-0.00106080,0.00032197,0.00086311,0.00081982,0.00010881
 ,-0.00079649,0.00006119,-0.00037123,0.00011595,-0.00009679,-0.00032385
 ,-0.00006964,-0.00025164,-0.00004434,0.00007621,0.00012101,-0.00001928
 ,-0.00001410,-0.00001871,0.00006119,-0.00002238,0.00000254,-0.00001376
 ,-0.00003148,0.00000517,-0.00001863,0.00000544,0.00000797,0.00001066,-
 0.00000530,0.00001385,-0.00000780,-0.00000018,0.00000393,0.00000743,0.
 00002041,0.00002050,-0.00000478,-0.00000091,0.00000154,-0.00000571,-0.
 00000012,-0.00000817,0.00000935,0.00002336,-0.00000915,0.00000161,-0.0
 0000460,-0.00000059,0.00000894,-0.00000438,0.00000478,-0.00000027,0.00
 000051,-0.00000277,-0.01013291,-0.02969981,-0.04599240,0.01092227,0.02
 619464,0.00185437,-0.00210916,-0.00827989,-0.00044321,0.01394446,0.035
 23635,0.05487928\\0.02162708,-0.02228137,0.01484684,-0.00001232,0.0000
 0686,0.00001049,0.00000372,0.00000668,0.00001949,-0.00001829,-0.000007
 98,-0.00004622,-0.00001073,-0.00001039,0.00000899,-0.00000535,0.000001
 16,-0.00002523,0.00000928,-0.00000251,0.00001180,0.00000230,0.00000734
 ,0.00000091,0.00000350,-0.00000084,0.00001186,0.00000039,-0.00000387,-
 0.00000141,0.00721775,-0.00244949,-0.00628075,0.00000039,-0.00000245,-
 0.00000075,-0.00002123,0.00002021,0.00001485,0.00001726,-0.00000183,-0
 .00000356,-0.00000972,-0.00001083,-0.00002533,0.00002967,-0.00003193,-
 0.00000206,-0.00000979,-0.00000488,-0.00002399,0.00000082,-0.00000202,
 0.00000357,-0.00000918,0.00000294,-0.00000126,0.00000270,0.00000450,0.
 00000238,0.00000579,0.00000615,0.00001065,0.00002227,0.00003899,0.0000
 5642,-0.00001697,0.00001608,-0.00000504,0.00000494,0.00000094,-0.00000
 343,0.00000379,-0.00000275,0.00000015,0.00000582,0.00000280,-0.0000069
 4,-0.00000034,0.00000004,0.00000007,-0.00000140,0.00000090,0.00000298,
 -0.00000269,-0.00000198,0.00000086,-0.00163231,0.03663539,-0.01533679,
 0.00342764,-0.01402102,0.00336374,-0.01282636,0.00162897,0.00917716,0.
 00001691,-0.00000895,-0.00001443,-0.00000403,-0.00001282,-0.00000021,0
 .00001139,0.00001560,0.00002243,-0.00000136,0.00000740,0.00000163,0.02
 785522,-0.00522520,0.00452495,-0.04569721,0.00568356,-0.01031429,0.000
 00267,-0.00000269,0.00000422,-0.00000759,-0.00001076,-0.00000203,-0.00
 000159,-0.00000438,-0.00000676,0.00001788,0.00001290,0.00000484,0.0000
 0039,-0.00000773,0.00000190,-0.00000444,0.00000176,0.00000270,0.000002
 18,0.00000005,-0.00000030,-0.00000018,0.00000218,0.00000212,0.00000004
 ,0.00000031,-0.00000031,0.00000193,0.00000139,0.00000244,0.00000064,-0
 .00000041,-0.00000340,-0.00000394,0.00000216,0.00000087,-0.00000007,-0
 .00000095,0.00000048,-0.00000039,0.00000007,-0.00000011,-0.00000048,0.
 00000074,-0.00000257,0.00000032,0.00000015,-0.00000168,0.00000067,0.00
 000217,-0.00000099,0.00000469,-0.00000082,-0.00000129,-0.00000208,0.00
 000046,-0.00000063\\\@
 The archive entry for this job was punched.


 SOME PHYSICISTS WOULD PREFER TO COME BACK TO THE IDEA OF AN OBJECTIVE
 REAL WORLD WHOSE SMALLEST PARTS EXIST OBJECTIVELY IN THE SAME SENSE AS
 STONES OR TREES EXIST INDEPENDENTLY OF WHETHER WE OBSERVE THEM.
 THIS, HOWEVER, IS IMPOSSIBLE.  -- WERNER HEISENBERG
 Job cpu time:       0 days  0 hours  0 minutes  0.9 seconds.
 Elapsed time:       0 days  0 hours  0 minutes  8.2 seconds.
 File lengths (MBytes):  RWF=      6 Int=      0 D2E=      0 Chk=      3 Scr=      1
 Normal termination of Gaussian 16 at Sun Sep 28 17:25:36 2025.
