 Entering Gaussian System, Link 0=g16
 Input=3-tsopt.gjf
 Output=3-tsopt.log
 Initial command:
 /home/echo/g16/l1.exe "/home/echo/scratch/Gau-16383.inp" -scrdir="/home/echo/scratch/"
 Entering Link 1 = /home/echo/g16/l1.exe PID=     16385.
  
 Copyright (c) 1988-2019, Gaussian, Inc.  All Rights Reserved.
  
 This is part of the Gaussian(R) 16 program.  It is based on
 the Gaussian(R) 09 system (copyright 2009, Gaussian, Inc.),
 the Gaussian(R) 03 system (copyright 2003, Gaussian, Inc.),
 the Gaussian(R) 98 system (copyright 1998, Gaussian, Inc.),
 the Gaussian(R) 94 system (copyright 1995, Gaussian, Inc.),
 the Gaussian 92(TM) system (copyright 1992, Gaussian, Inc.),
 the Gaussian 90(TM) system (copyright 1990, Gaussian, Inc.),
 the Gaussian 88(TM) system (copyright 1988, Gaussian, Inc.),
 the Gaussian 86(TM) system (copyright 1986, Carnegie Mellon
 University), and the Gaussian 82(TM) system (copyright 1983,
 Carnegie Mellon University). Gaussian is a federally registered
 trademark of Gaussian, Inc.
  
 This software contains proprietary and confidential information,
 including trade secrets, belonging to Gaussian, Inc.
  
 This software is provided under written license and may be
 used, copied, transmitted, or stored only in accord with that
 written license.
  
 The following legend is applicable only to US Government
 contracts under FAR:
  
                    RESTRICTED RIGHTS LEGEND
  
 Use, reproduction and disclosure by the US Government is
 subject to restrictions as set forth in subparagraphs (a)
 and (c) of the Commercial Computer Software - Restricted
 Rights clause in FAR 52.227-19.
  
 Gaussian, Inc.
 340 Quinnipiac St., Bldg. 40, Wallingford CT 06492
  
  
 ---------------------------------------------------------------
 Warning -- This program may not be used in any manner that
 competes with the business of Gaussian, Inc. or will provide
 assistance to any competitor of Gaussian, Inc.  The licensee
 of this program is prohibited from giving any competitor of
 Gaussian, Inc. access to this program.  By using this program,
 the user acknowledges that Gaussian, Inc. is engaged in the
 business of creating and licensing software in the field of
 computational chemistry and represents and warrants to the
 licensee that it is not a competitor of Gaussian, Inc. and that
 it will not use this program in any manner prohibited above.
 ---------------------------------------------------------------
  

 Cite this work as:
 Gaussian 16, Revision C.01,
 M. J. Frisch, G. W. Trucks, H. B. Schlegel, G. E. Scuseria, 
 M. A. Robb, J. R. Cheeseman, G. Scalmani, V. Barone, 
 G. A. Petersson, H. Nakatsuji, X. Li, M. Caricato, A. V. Marenich, 
 J. Bloino, B. G. Janesko, R. Gomperts, B. Mennucci, H. P. Hratchian, 
 J. V. Ortiz, A. F. Izmaylov, J. L. Sonnenberg, D. Williams-Young, 
 F. Ding, F. Lipparini, F. Egidi, J. Goings, B. Peng, A. Petrone, 
 T. Henderson, D. Ranasinghe, V. G. Zakrzewski, J. Gao, N. Rega, 
 G. Zheng, W. Liang, M. Hada, M. Ehara, K. Toyota, R. Fukuda, 
 J. Hasegawa, M. Ishida, T. Nakajima, Y. Honda, O. Kitao, H. Nakai, 
 T. Vreven, K. Throssell, J. A. Montgomery, Jr., J. E. Peralta, 
 F. Ogliaro, M. J. Bearpark, J. J. Heyd, E. N. Brothers, K. N. Kudin, 
 V. N. Staroverov, T. A. Keith, R. Kobayashi, J. Normand, 
 K. Raghavachari, A. P. Rendell, J. C. Burant, S. S. Iyengar, 
 J. Tomasi, M. Cossi, J. M. Millam, M. Klene, C. Adamo, R. Cammi, 
 J. W. Ochterski, R. L. Martin, K. Morokuma, O. Farkas, 
 J. B. Foresman, and D. J. Fox, Gaussian, Inc., Wallingford CT, 2019.
 
 ******************************************
 Gaussian 16:  ES64L-G16RevC.01  3-Jul-2019
                28-Sep-2025 
 ******************************************
 %chk=3-tsopt.chk
 -----------------------------------------------------
 #p opt(ts,calcfc,noeigen,nomicro) external='./xtb.sh'
 -----------------------------------------------------
 1/5=1,10=4,11=1,18=20,26=1,38=1/1,3;
 2/9=110,12=2,17=6,18=5,40=1/2;
 3/11=9,25=1,30=1,41=9900000,43=2,71=2,140=1/1;
 4/20=17,22=2,24=3,113=1,114=1/2;
 6/7=2,8=2,9=2,10=2/1;
 7/25=1,44=-1/16;
 1/5=1,10=4,11=1,18=20,26=1/3(2);
 2/9=110/2;
 99//99;
 2/9=110/2;
 3/11=9,25=1,30=1,41=9900000,43=2,71=1/1;
 4/16=2,20=17,22=1,24=3,113=1,114=1/2;
 7/44=-1/16;
 1/5=1,11=1,18=20,26=1/3(-4);
 2/9=110/2;
 6/7=2,8=2,9=2,10=2/1;
 99/9=10/99;
 Leave Link    1 at Sun Sep 28 17:25:36 2025, MaxMem=           0 cpu:               0.0 elap:               0.1
 (Enter /home/echo/g16/l101.exe)
 ------------------------------
 Generate automatically by rxnb
 ------------------------------
 Symbolic Z-matrix:
 Charge =  0 Multiplicity = 1
 C                     0.44277  -1.69284   0.2378 
 C                     2.14717  -1.61749  -1.67906 
 C                     1.69024  -2.05655  -0.34226 
 C                     0.74819  -1.48075   1.60885 
 C                     2.03581  -1.96126   1.8945 
 C                     2.63057  -2.32462   0.67985 
 H                     0.08357  -1.09137   2.34989 
 H                     2.51114  -1.92562   2.84615 
 H                     3.6496   -2.60494   0.54705 
 H                     3.2361   -1.60049  -1.6266 
 N                     1.66112  -0.24645  -1.94555 
 H                     1.83719  -2.27294  -2.49712 
 C                     2.66363   0.98864   1.80708 
 C                     3.70654   0.06816   1.61376 
 C                     3.96411  -0.02498   0.23524 
 C                     3.0817    0.83722  -0.4241 
 C                     2.27175   1.48209   0.5492 
 H                     2.22616   1.19959   2.7545 
 H                     4.16858  -0.52458   2.36598 
 H                     4.65893  -0.69244  -0.21898 
 H                     1.593     2.28916   0.35967 
 Fe                    2.13062  -0.47839   0.65112 
 C                     2.7358    0.74282  -1.85341 
 H                     3.6007    0.44699  -2.46147 
 H                     2.34821   1.69685  -2.21559 
 C                     0.90668  -0.15626  -3.19505 
 H                     0.52395   0.86115  -3.31247 
 H                     1.52424  -0.40639  -4.06938 
 H                     0.05592  -0.84569  -3.14974 
 Pd                    0.09965   0.28298  -0.58578 
 O                    -0.36766   2.18775  -1.04052 
 N                    -1.50131   0.48656   0.56422 
 C                    -1.02824   2.75558  -0.10446 
 C                    -1.51951   1.82547   1.06158 
 C                    -2.44428  -0.31363   0.1814 
 O                    -1.26679   3.94839  -0.05581 
 O                    -2.13331  -1.41379  -0.38808 
 H                    -0.82649  -1.6593   -0.17513 
 H                    -2.51195   2.15433   1.39002 
 O                    -3.70449   0.0179    0.49088 
 C                    -4.86261  -0.97336  -1.41084 
 C                    -4.81556  -0.81591   0.10937 
 C                    -4.72667  -2.17608   0.80314 
 C                    -6.0398   -0.04334   0.6034 
 H                    -4.8721    0.00653  -1.88403 
 H                    -5.76026  -1.5141   -1.69787 
 H                    -3.99158  -1.52405  -1.75651 
 H                    -5.61671  -2.75854   0.58176 
 H                    -4.65109  -2.03972   1.87994 
 H                    -3.85138  -2.71812   0.45553 
 H                    -6.94759  -0.58612   0.35678 
 H                    -6.07184   0.93773   0.137 
 H                    -5.98493   0.09036   1.6806 
 C                    -0.50092   1.84002   2.21456 
 H                    -0.97274   1.4982    3.13375 
 H                     0.30887   1.14166   1.94481 
 H                    -0.11232   2.84266   2.37237 
 
 Add virtual bond connecting atoms H38        and C1         Dist= 2.52D+00.
 Add virtual bond connecting atoms H38        and O37        Dist= 2.54D+00.
 ITRead=  0  0  0  0  0  0  0  0  0  0  0  0  0  0  0  0  0  0  0  0
 ITRead=  0  0  0  0  0  0  0  0  0  0  0  0  0  0  0  0  0  0  0  0
 ITRead=  0  0  0  0  0  0  0  0  0  0  0  0  0  0  0  0  0
 MicOpt= -1 -1 -1 -1 -1 -1 -1 -1 -1 -1 -1 -1 -1 -1 -1 -1 -1 -1 -1 -1
 MicOpt= -1 -1 -1 -1 -1 -1 -1 -1 -1 -1 -1 -1 -1 -1 -1 -1 -1 -1 -1 -1
 MicOpt= -1 -1 -1 -1 -1 -1 -1 -1 -1 -1 -1 -1 -1 -1 -1 -1 -1
 NAtoms=     57 NQM=       57 NQMF=       0 NMMI=      0 NMMIF=      0
                NMic=       0 NMicF=      0.
                    Isotopes and Nuclear Properties:
 (Nuclear quadrupole moments (NQMom) in fm**2, nuclear magnetic moments (NMagM)
  in nuclear magnetons)

  Atom         1           2           3           4           5           6           7           8           9          10
 IAtWgt=          12          12          12          12          12          12           1           1           1           1
 AtmWgt=  12.0000000  12.0000000  12.0000000  12.0000000  12.0000000  12.0000000   1.0078250   1.0078250   1.0078250   1.0078250
 NucSpn=           0           0           0           0           0           0           1           1           1           1
 AtZEff=  -0.0000000  -0.0000000  -0.0000000  -0.0000000  -0.0000000  -0.0000000  -0.0000000  -0.0000000  -0.0000000  -0.0000000
 NQMom=    0.0000000   0.0000000   0.0000000   0.0000000   0.0000000   0.0000000   0.0000000   0.0000000   0.0000000   0.0000000
 NMagM=    0.0000000   0.0000000   0.0000000   0.0000000   0.0000000   0.0000000   2.7928460   2.7928460   2.7928460   2.7928460
 AtZNuc=   6.0000000   6.0000000   6.0000000   6.0000000   6.0000000   6.0000000   1.0000000   1.0000000   1.0000000   1.0000000

  Atom        11          12          13          14          15          16          17          18          19          20
 IAtWgt=          14           1          12          12          12          12          12           1           1           1
 AtmWgt=  14.0030740   1.0078250  12.0000000  12.0000000  12.0000000  12.0000000  12.0000000   1.0078250   1.0078250   1.0078250
 NucSpn=           2           1           0           0           0           0           0           1           1           1
 AtZEff=  -0.0000000  -0.0000000  -0.0000000  -0.0000000  -0.0000000  -0.0000000  -0.0000000  -0.0000000  -0.0000000  -0.0000000
 NQMom=    2.0440000   0.0000000   0.0000000   0.0000000   0.0000000   0.0000000   0.0000000   0.0000000   0.0000000   0.0000000
 NMagM=    0.4037610   2.7928460   0.0000000   0.0000000   0.0000000   0.0000000   0.0000000   2.7928460   2.7928460   2.7928460
 AtZNuc=   7.0000000   1.0000000   6.0000000   6.0000000   6.0000000   6.0000000   6.0000000   1.0000000   1.0000000   1.0000000

  Atom        21          22          23          24          25          26          27          28          29          30
 IAtWgt=           1          56          12           1           1          12           1           1           1         106
 AtmWgt=   1.0078250  55.9349393  12.0000000   1.0078250   1.0078250  12.0000000   1.0078250   1.0078250   1.0078250 105.9032000
 NucSpn=           1           0           0           1           1           0           1           1           1           0
 AtZEff=  -0.0000000  -0.0000000  -0.0000000  -0.0000000  -0.0000000  -0.0000000  -0.0000000  -0.0000000  -0.0000000  -0.0000000
 NQMom=    0.0000000   0.0000000   0.0000000   0.0000000   0.0000000   0.0000000   0.0000000   0.0000000   0.0000000   0.0000000
 NMagM=    2.7928460   0.0000000   0.0000000   2.7928460   2.7928460   0.0000000   2.7928460   2.7928460   2.7928460   0.0000000
 AtZNuc=   1.0000000  26.0000000   6.0000000   1.0000000   1.0000000   6.0000000   1.0000000   1.0000000   1.0000000  46.0000000

  Atom        31          32          33          34          35          36          37          38          39          40
 IAtWgt=          16          14          12          12          12          16          16           1           1          16
 AtmWgt=  15.9949146  14.0030740  12.0000000  12.0000000  12.0000000  15.9949146  15.9949146   1.0078250   1.0078250  15.9949146
 NucSpn=           0           2           0           0           0           0           0           1           1           0
 AtZEff=  -0.0000000  -0.0000000  -0.0000000  -0.0000000  -0.0000000  -0.0000000  -0.0000000  -0.0000000  -0.0000000  -0.0000000
 NQMom=    0.0000000   2.0440000   0.0000000   0.0000000   0.0000000   0.0000000   0.0000000   0.0000000   0.0000000   0.0000000
 NMagM=    0.0000000   0.4037610   0.0000000   0.0000000   0.0000000   0.0000000   0.0000000   2.7928460   2.7928460   0.0000000
 AtZNuc=   8.0000000   7.0000000   6.0000000   6.0000000   6.0000000   8.0000000   8.0000000   1.0000000   1.0000000   8.0000000

  Atom        41          42          43          44          45          46          47          48          49          50
 IAtWgt=          12          12          12          12           1           1           1           1           1           1
 AtmWgt=  12.0000000  12.0000000  12.0000000  12.0000000   1.0078250   1.0078250   1.0078250   1.0078250   1.0078250   1.0078250
 NucSpn=           0           0           0           0           1           1           1           1           1           1
 AtZEff=  -0.0000000  -0.0000000  -0.0000000  -0.0000000  -0.0000000  -0.0000000  -0.0000000  -0.0000000  -0.0000000  -0.0000000
 NQMom=    0.0000000   0.0000000   0.0000000   0.0000000   0.0000000   0.0000000   0.0000000   0.0000000   0.0000000   0.0000000
 NMagM=    0.0000000   0.0000000   0.0000000   0.0000000   2.7928460   2.7928460   2.7928460   2.7928460   2.7928460   2.7928460
 AtZNuc=   6.0000000   6.0000000   6.0000000   6.0000000   1.0000000   1.0000000   1.0000000   1.0000000   1.0000000   1.0000000

  Atom        51          52          53          54          55          56          57
 IAtWgt=           1           1           1          12           1           1           1
 AtmWgt=   1.0078250   1.0078250   1.0078250  12.0000000   1.0078250   1.0078250   1.0078250
 NucSpn=           1           1           1           0           1           1           1
 AtZEff=  -0.0000000  -0.0000000  -0.0000000  -0.0000000  -0.0000000  -0.0000000  -0.0000000
 NQMom=    0.0000000   0.0000000   0.0000000   0.0000000   0.0000000   0.0000000   0.0000000
 NMagM=    2.7928460   2.7928460   2.7928460   0.0000000   2.7928460   2.7928460   2.7928460
 AtZNuc=   1.0000000   1.0000000   1.0000000   6.0000000   1.0000000   1.0000000   1.0000000
 Leave Link  101 at Sun Sep 28 17:25:36 2025, MaxMem=   104857600 cpu:               0.2 elap:               0.3
 (Enter /home/echo/g16/l103.exe)

 GradGradGradGradGradGradGradGradGradGradGradGradGradGradGradGradGradGrad
 Berny optimization.
 Initialization pass.
                           ----------------------------
                           !    Initial Parameters    !
                           ! (Angstroms and Degrees)  !
 --------------------------                            --------------------------
 ! Name  Definition              Value          Derivative Info.                !
 --------------------------------------------------------------------------------
 ! R1    R(1,3)                  1.423          calculate D2E/DX2 analytically  !
 ! R2    R(1,4)                  1.4206         calculate D2E/DX2 analytically  !
 ! R3    R(1,22)                 2.12           calculate D2E/DX2 analytically  !
 ! R4    R(1,30)                 2.1679         calculate D2E/DX2 analytically  !
 ! R5    R(1,38)                 1.3352         calculate D2E/DX2 analytically  !
 ! R6    R(2,3)                  1.4794         calculate D2E/DX2 analytically  !
 ! R7    R(2,10)                 1.0903         calculate D2E/DX2 analytically  !
 ! R8    R(2,11)                 1.4789         calculate D2E/DX2 analytically  !
 ! R9    R(2,12)                 1.0931         calculate D2E/DX2 analytically  !
 ! R10   R(3,6)                  1.4145         calculate D2E/DX2 analytically  !
 ! R11   R(3,22)                 1.9161         calculate D2E/DX2 analytically  !
 ! R12   R(4,5)                  1.4037         calculate D2E/DX2 analytically  !
 ! R13   R(4,7)                  1.0689         calculate D2E/DX2 analytically  !
 ! R14   R(4,22)                 1.9578         calculate D2E/DX2 analytically  !
 ! R15   R(5,6)                  1.4004         calculate D2E/DX2 analytically  !
 ! R16   R(5,8)                  1.0644         calculate D2E/DX2 analytically  !
 ! R17   R(5,22)                 1.9375         calculate D2E/DX2 analytically  !
 ! R18   R(6,9)                  1.0652         calculate D2E/DX2 analytically  !
 ! R19   R(6,22)                 1.9129         calculate D2E/DX2 analytically  !
 ! R20   R(11,23)                1.4636         calculate D2E/DX2 analytically  !
 ! R21   R(11,26)                1.4624         calculate D2E/DX2 analytically  !
 ! R22   R(11,30)                2.1372         calculate D2E/DX2 analytically  !
 ! R23   R(13,14)                1.4044         calculate D2E/DX2 analytically  !
 ! R24   R(13,17)                1.4069         calculate D2E/DX2 analytically  !
 ! R25   R(13,18)                1.0647         calculate D2E/DX2 analytically  !
 ! R26   R(13,22)                1.9423         calculate D2E/DX2 analytically  !
 ! R27   R(14,15)                1.4055         calculate D2E/DX2 analytically  !
 ! R28   R(14,19)                1.0633         calculate D2E/DX2 analytically  !
 ! R29   R(14,22)                1.9259         calculate D2E/DX2 analytically  !
 ! R30   R(15,16)                1.3988         calculate D2E/DX2 analytically  !
 ! R31   R(15,20)                1.0652         calculate D2E/DX2 analytically  !
 ! R32   R(15,22)                1.934          calculate D2E/DX2 analytically  !
 ! R33   R(16,17)                1.421          calculate D2E/DX2 analytically  !
 ! R34   R(16,22)                1.9472         calculate D2E/DX2 analytically  !
 ! R35   R(16,23)                1.4736         calculate D2E/DX2 analytically  !
 ! R36   R(17,21)                1.0714         calculate D2E/DX2 analytically  !
 ! R37   R(17,22)                1.9682         calculate D2E/DX2 analytically  !
 ! R38   R(22,30)                2.4969         calculate D2E/DX2 analytically  !
 ! R39   R(23,24)                1.0979         calculate D2E/DX2 analytically  !
 ! R40   R(23,25)                1.0916         calculate D2E/DX2 analytically  !
 ! R41   R(26,27)                1.0933         calculate D2E/DX2 analytically  !
 ! R42   R(26,28)                1.0993         calculate D2E/DX2 analytically  !
 ! R43   R(26,29)                1.096          calculate D2E/DX2 analytically  !
 ! R44   R(30,31)                2.0133         calculate D2E/DX2 analytically  !
 ! R45   R(30,32)                1.9817         calculate D2E/DX2 analytically  !
 ! R46   R(31,33)                1.2787         calculate D2E/DX2 analytically  !
 ! R47   R(32,34)                1.4284         calculate D2E/DX2 analytically  !
 ! R48   R(32,35)                1.2946         calculate D2E/DX2 analytically  !
 ! R49   R(33,34)                1.5704         calculate D2E/DX2 analytically  !
 ! R50   R(33,36)                1.2174         calculate D2E/DX2 analytically  !
 ! R51   R(34,39)                1.0959         calculate D2E/DX2 analytically  !
 ! R52   R(34,54)                1.5385         calculate D2E/DX2 analytically  !
 ! R53   R(35,37)                1.2772         calculate D2E/DX2 analytically  !
 ! R54   R(35,40)                1.3393         calculate D2E/DX2 analytically  !
 ! R55   R(37,38)                1.3466         calculate D2E/DX2 analytically  !
 ! R56   R(40,42)                1.4406         calculate D2E/DX2 analytically  !
 ! R57   R(41,42)                1.5291         calculate D2E/DX2 analytically  !
 ! R58   R(41,45)                1.0882         calculate D2E/DX2 analytically  !
 ! R59   R(41,46)                1.0865         calculate D2E/DX2 analytically  !
 ! R60   R(41,47)                1.0869         calculate D2E/DX2 analytically  !
 ! R61   R(42,43)                1.5295         calculate D2E/DX2 analytically  !
 ! R62   R(42,44)                1.5296         calculate D2E/DX2 analytically  !
 ! R63   R(43,48)                1.0865         calculate D2E/DX2 analytically  !
 ! R64   R(43,49)                1.088          calculate D2E/DX2 analytically  !
 ! R65   R(43,50)                1.0866         calculate D2E/DX2 analytically  !
 ! R66   R(44,51)                1.0861         calculate D2E/DX2 analytically  !
 ! R67   R(44,52)                1.0868         calculate D2E/DX2 analytically  !
 ! R68   R(44,53)                1.0869         calculate D2E/DX2 analytically  !
 ! R69   R(54,55)                1.0883         calculate D2E/DX2 analytically  !
 ! R70   R(54,56)                1.1028         calculate D2E/DX2 analytically  !
 ! R71   R(54,57)                1.0868         calculate D2E/DX2 analytically  !
 ! A1    A(3,1,4)              104.0697         calculate D2E/DX2 analytically  !
 ! A2    A(3,1,30)             102.5233         calculate D2E/DX2 analytically  !
 ! A3    A(3,1,38)             135.539          calculate D2E/DX2 analytically  !
 ! A4    A(4,1,30)             105.3437         calculate D2E/DX2 analytically  !
 ! A5    A(4,1,38)             119.9421         calculate D2E/DX2 analytically  !
 ! A6    A(22,1,38)            143.3936         calculate D2E/DX2 analytically  !
 ! A7    A(30,1,38)             73.0914         calculate D2E/DX2 analytically  !
 ! A8    A(3,2,10)             105.6416         calculate D2E/DX2 analytically  !
 ! A9    A(3,2,11)             109.6617         calculate D2E/DX2 analytically  !
 ! A10   A(3,2,12)             114.2486         calculate D2E/DX2 analytically  !
 ! A11   A(10,2,11)            108.8118         calculate D2E/DX2 analytically  !
 ! A12   A(10,2,12)            109.1817         calculate D2E/DX2 analytically  !
 ! A13   A(11,2,12)            109.1377         calculate D2E/DX2 analytically  !
 ! A14   A(1,3,2)              124.2809         calculate D2E/DX2 analytically  !
 ! A15   A(1,3,6)              109.6738         calculate D2E/DX2 analytically  !
 ! A16   A(2,3,6)              120.2563         calculate D2E/DX2 analytically  !
 ! A17   A(2,3,22)              98.8034         calculate D2E/DX2 analytically  !
 ! A18   A(1,4,5)              110.0297         calculate D2E/DX2 analytically  !
 ! A19   A(1,4,7)              126.1447         calculate D2E/DX2 analytically  !
 ! A20   A(5,4,7)              123.641          calculate D2E/DX2 analytically  !
 ! A21   A(7,4,22)             126.2772         calculate D2E/DX2 analytically  !
 ! A22   A(4,5,6)              107.5713         calculate D2E/DX2 analytically  !
 ! A23   A(4,5,8)              125.4601         calculate D2E/DX2 analytically  !
 ! A24   A(6,5,8)              126.4792         calculate D2E/DX2 analytically  !
 ! A25   A(8,5,22)             121.7565         calculate D2E/DX2 analytically  !
 ! A26   A(3,6,5)              107.1719         calculate D2E/DX2 analytically  !
 ! A27   A(3,6,9)              126.5667         calculate D2E/DX2 analytically  !
 ! A28   A(5,6,9)              125.6418         calculate D2E/DX2 analytically  !
 ! A29   A(9,6,22)             120.1416         calculate D2E/DX2 analytically  !
 ! A30   A(2,11,23)            111.9605         calculate D2E/DX2 analytically  !
 ! A31   A(2,11,26)            112.3773         calculate D2E/DX2 analytically  !
 ! A32   A(2,11,30)            110.8024         calculate D2E/DX2 analytically  !
 ! A33   A(23,11,26)           113.0116         calculate D2E/DX2 analytically  !
 ! A34   A(23,11,30)           109.2073         calculate D2E/DX2 analytically  !
 ! A35   A(26,11,30)            98.7094         calculate D2E/DX2 analytically  !
 ! A36   A(14,13,17)           108.2799         calculate D2E/DX2 analytically  !
 ! A37   A(14,13,18)           123.8833         calculate D2E/DX2 analytically  !
 ! A38   A(17,13,18)           127.7116         calculate D2E/DX2 analytically  !
 ! A39   A(18,13,22)           124.5073         calculate D2E/DX2 analytically  !
 ! A40   A(13,14,15)           108.3332         calculate D2E/DX2 analytically  !
 ! A41   A(13,14,19)           126.2041         calculate D2E/DX2 analytically  !
 ! A42   A(15,14,19)           125.2599         calculate D2E/DX2 analytically  !
 ! A43   A(19,14,22)           123.434          calculate D2E/DX2 analytically  !
 ! A44   A(14,15,16)           107.8098         calculate D2E/DX2 analytically  !
 ! A45   A(14,15,20)           125.4029         calculate D2E/DX2 analytically  !
 ! A46   A(16,15,20)           126.6351         calculate D2E/DX2 analytically  !
 ! A47   A(20,15,22)           124.278          calculate D2E/DX2 analytically  !
 ! A48   A(15,16,17)           108.4472         calculate D2E/DX2 analytically  !
 ! A49   A(15,16,23)           124.4556         calculate D2E/DX2 analytically  !
 ! A50   A(17,16,23)           124.031          calculate D2E/DX2 analytically  !
 ! A51   A(22,16,23)           112.1891         calculate D2E/DX2 analytically  !
 ! A52   A(13,17,16)           107.1254         calculate D2E/DX2 analytically  !
 ! A53   A(13,17,21)           126.7848         calculate D2E/DX2 analytically  !
 ! A54   A(16,17,21)           125.5749         calculate D2E/DX2 analytically  !
 ! A55   A(21,17,22)           135.5646         calculate D2E/DX2 analytically  !
 ! A56   A(1,22,5)              69.3736         calculate D2E/DX2 analytically  !
 ! A57   A(1,22,6)              70.0094         calculate D2E/DX2 analytically  !
 ! A58   A(1,22,13)            140.1015         calculate D2E/DX2 analytically  !
 ! A59   A(1,22,14)            155.7136         calculate D2E/DX2 analytically  !
 ! A60   A(1,22,15)            147.9037         calculate D2E/DX2 analytically  !
 ! A61   A(1,22,16)            131.9326         calculate D2E/DX2 analytically  !
 ! A62   A(1,22,17)            128.1404         calculate D2E/DX2 analytically  !
 ! A63   A(3,22,4)              70.7094         calculate D2E/DX2 analytically  !
 ! A64   A(3,22,5)              72.0061         calculate D2E/DX2 analytically  !
 ! A65   A(3,22,14)            132.9192         calculate D2E/DX2 analytically  !
 ! A66   A(3,22,15)            107.428          calculate D2E/DX2 analytically  !
 ! A67   A(3,22,16)            112.487          calculate D2E/DX2 analytically  !
 ! A68   A(3,22,17)            144.1007         calculate D2E/DX2 analytically  !
 ! A69   A(3,22,30)             78.8941         calculate D2E/DX2 analytically  !
 ! A70   A(4,22,6)              71.5228         calculate D2E/DX2 analytically  !
 ! A71   A(4,22,13)            106.8181         calculate D2E/DX2 analytically  !
 ! A72   A(4,22,14)            118.5929         calculate D2E/DX2 analytically  !
 ! A73   A(4,22,15)            153.4627         calculate D2E/DX2 analytically  !
 ! A74   A(4,22,16)            163.9314         calculate D2E/DX2 analytically  !
 ! A75   A(4,22,17)            125.8689         calculate D2E/DX2 analytically  !
 ! A76   A(4,22,30)             79.8689         calculate D2E/DX2 analytically  !
 ! A77   A(5,22,13)            102.0972         calculate D2E/DX2 analytically  !
 ! A78   A(5,22,14)             86.3575         calculate D2E/DX2 analytically  !
 ! A79   A(5,22,15)            111.3354         calculate D2E/DX2 analytically  !
 ! A80   A(5,22,16)            153.5578         calculate D2E/DX2 analytically  !
 ! A81   A(5,22,17)            143.0438         calculate D2E/DX2 analytically  !
 ! A82   A(5,22,30)            120.7625         calculate D2E/DX2 analytically  !
 ! A83   A(6,22,13)            130.4141         calculate D2E/DX2 analytically  !
 ! A84   A(6,22,14)             93.0111         calculate D2E/DX2 analytically  !
 ! A85   A(6,22,15)             88.9529         calculate D2E/DX2 analytically  !
 ! A86   A(6,22,16)            122.1899         calculate D2E/DX2 analytically  !
 ! A87   A(6,22,17)            160.6274         calculate D2E/DX2 analytically  !
 ! A88   A(6,22,30)            120.9518         calculate D2E/DX2 analytically  !
 ! A89   A(13,22,15)            71.9852         calculate D2E/DX2 analytically  !
 ! A90   A(13,22,16)            71.5955         calculate D2E/DX2 analytically  !
 ! A91   A(13,22,30)           106.7218         calculate D2E/DX2 analytically  !
 ! A92   A(14,22,16)            71.6137         calculate D2E/DX2 analytically  !
 ! A93   A(14,22,17)            71.6104         calculate D2E/DX2 analytically  !
 ! A94   A(14,22,30)           145.7592         calculate D2E/DX2 analytically  !
 ! A95   A(15,22,17)            71.7815         calculate D2E/DX2 analytically  !
 ! A96   A(15,22,30)           126.3792         calculate D2E/DX2 analytically  !
 ! A97   A(16,22,30)            85.2809         calculate D2E/DX2 analytically  !
 ! A98   A(17,22,30)            74.2727         calculate D2E/DX2 analytically  !
 ! A99   A(11,23,16)           106.0647         calculate D2E/DX2 analytically  !
 ! A100  A(11,23,24)           111.1902         calculate D2E/DX2 analytically  !
 ! A101  A(11,23,25)           108.0071         calculate D2E/DX2 analytically  !
 ! A102  A(16,23,24)           111.688          calculate D2E/DX2 analytically  !
 ! A103  A(16,23,25)           110.437          calculate D2E/DX2 analytically  !
 ! A104  A(24,23,25)           109.3575         calculate D2E/DX2 analytically  !
 ! A105  A(11,26,27)           109.2533         calculate D2E/DX2 analytically  !
 ! A106  A(11,26,28)           112.0693         calculate D2E/DX2 analytically  !
 ! A107  A(11,26,29)           109.0474         calculate D2E/DX2 analytically  !
 ! A108  A(27,26,28)           108.8431         calculate D2E/DX2 analytically  !
 ! A109  A(27,26,29)           108.5466         calculate D2E/DX2 analytically  !
 ! A110  A(28,26,29)           109.0165         calculate D2E/DX2 analytically  !
 ! A111  A(1,30,11)             84.2778         calculate D2E/DX2 analytically  !
 ! A112  A(1,30,32)             90.0592         calculate D2E/DX2 analytically  !
 ! A113  A(11,30,22)            69.2281         calculate D2E/DX2 analytically  !
 ! A114  A(11,30,31)           105.085          calculate D2E/DX2 analytically  !
 ! A115  A(22,30,31)           126.0991         calculate D2E/DX2 analytically  !
 ! A116  A(22,30,32)           113.6396         calculate D2E/DX2 analytically  !
 ! A117  A(31,30,32)            81.1622         calculate D2E/DX2 analytically  !
 ! A118  A(30,31,33)           112.0061         calculate D2E/DX2 analytically  !
 ! A119  A(30,32,34)           107.9778         calculate D2E/DX2 analytically  !
 ! A120  A(30,32,35)           110.692          calculate D2E/DX2 analytically  !
 ! A121  A(34,32,35)           132.3018         calculate D2E/DX2 analytically  !
 ! A122  A(31,33,34)           116.2419         calculate D2E/DX2 analytically  !
 ! A123  A(31,33,36)           124.4434         calculate D2E/DX2 analytically  !
 ! A124  A(34,33,36)           119.2976         calculate D2E/DX2 analytically  !
 ! A125  A(32,34,33)           107.0164         calculate D2E/DX2 analytically  !
 ! A126  A(32,34,39)           113.4017         calculate D2E/DX2 analytically  !
 ! A127  A(32,34,54)           105.1509         calculate D2E/DX2 analytically  !
 ! A128  A(33,34,39)           109.1538         calculate D2E/DX2 analytically  !
 ! A129  A(33,34,54)           110.1043         calculate D2E/DX2 analytically  !
 ! A130  A(39,34,54)           111.8466         calculate D2E/DX2 analytically  !
 ! A131  A(32,35,37)           119.1368         calculate D2E/DX2 analytically  !
 ! A132  A(32,35,40)           117.6467         calculate D2E/DX2 analytically  !
 ! A133  A(37,35,40)           123.0468         calculate D2E/DX2 analytically  !
 ! A134  A(35,37,38)           108.8325         calculate D2E/DX2 analytically  !
 ! A135  A(35,40,42)           121.4151         calculate D2E/DX2 analytically  !
 ! A136  A(42,41,45)           109.8686         calculate D2E/DX2 analytically  !
 ! A137  A(42,41,46)           109.8347         calculate D2E/DX2 analytically  !
 ! A138  A(42,41,47)           110.1019         calculate D2E/DX2 analytically  !
 ! A139  A(45,41,46)           109.03           calculate D2E/DX2 analytically  !
 ! A140  A(45,41,47)           108.9605         calculate D2E/DX2 analytically  !
 ! A141  A(46,41,47)           109.0198         calculate D2E/DX2 analytically  !
 ! A142  A(40,42,41)           110.2813         calculate D2E/DX2 analytically  !
 ! A143  A(40,42,43)           110.4739         calculate D2E/DX2 analytically  !
 ! A144  A(40,42,44)           103.8522         calculate D2E/DX2 analytically  !
 ! A145  A(41,42,43)           111.1733         calculate D2E/DX2 analytically  !
 ! A146  A(41,42,44)           110.3949         calculate D2E/DX2 analytically  !
 ! A147  A(43,42,44)           110.4373         calculate D2E/DX2 analytically  !
 ! A148  A(42,43,48)           109.6772         calculate D2E/DX2 analytically  !
 ! A149  A(42,43,49)           109.9685         calculate D2E/DX2 analytically  !
 ! A150  A(42,43,50)           110.2012         calculate D2E/DX2 analytically  !
 ! A151  A(48,43,49)           109.011          calculate D2E/DX2 analytically  !
 ! A152  A(48,43,50)           109.1029         calculate D2E/DX2 analytically  !
 ! A153  A(49,43,50)           108.854          calculate D2E/DX2 analytically  !
 ! A154  A(42,44,51)           110.0736         calculate D2E/DX2 analytically  !
 ! A155  A(42,44,52)           109.9343         calculate D2E/DX2 analytically  !
 ! A156  A(42,44,53)           109.9888         calculate D2E/DX2 analytically  !
 ! A157  A(51,44,52)           109.2123         calculate D2E/DX2 analytically  !
 ! A158  A(51,44,53)           109.1924         calculate D2E/DX2 analytically  !
 ! A159  A(52,44,53)           108.4085         calculate D2E/DX2 analytically  !
 ! A160  A(34,54,55)           110.0574         calculate D2E/DX2 analytically  !
 ! A161  A(34,54,56)           107.2681         calculate D2E/DX2 analytically  !
 ! A162  A(34,54,57)           110.7479         calculate D2E/DX2 analytically  !
 ! A163  A(55,54,56)           109.0287         calculate D2E/DX2 analytically  !
 ! A164  A(55,54,57)           108.792          calculate D2E/DX2 analytically  !
 ! A165  A(56,54,57)           110.9259         calculate D2E/DX2 analytically  !
 ! A166  L(3,22,13,4,-1)       177.5275         calculate D2E/DX2 analytically  !
 ! A167  L(1,30,31,32,-1)      171.2214         calculate D2E/DX2 analytically  !
 ! A168  L(11,30,32,22,-1)     182.8678         calculate D2E/DX2 analytically  !
 ! A169  L(1,38,37,30,-1)      173.8863         calculate D2E/DX2 analytically  !
 ! A170  L(3,22,13,4,-2)       173.7676         calculate D2E/DX2 analytically  !
 ! A171  L(1,30,31,32,-2)      175.1928         calculate D2E/DX2 analytically  !
 ! A172  L(11,30,32,22,-2)     190.3017         calculate D2E/DX2 analytically  !
 ! A173  L(1,38,37,30,-2)      191.4181         calculate D2E/DX2 analytically  !
 ! D1    D(4,1,3,2)           -141.1808         calculate D2E/DX2 analytically  !
 ! D2    D(4,1,3,6)             11.8593         calculate D2E/DX2 analytically  !
 ! D3    D(30,1,3,2)           -31.6017         calculate D2E/DX2 analytically  !
 ! D4    D(30,1,3,6)           121.4384         calculate D2E/DX2 analytically  !
 ! D5    D(38,1,3,2)            46.9185         calculate D2E/DX2 analytically  !
 ! D6    D(38,1,3,6)          -160.0414         calculate D2E/DX2 analytically  !
 ! D7    D(3,1,4,5)            -11.8399         calculate D2E/DX2 analytically  !
 ! D8    D(3,1,4,7)            172.9776         calculate D2E/DX2 analytically  !
 ! D9    D(30,1,4,5)          -119.3319         calculate D2E/DX2 analytically  !
 ! D10   D(30,1,4,7)            65.4856         calculate D2E/DX2 analytically  !
 ! D11   D(38,1,4,5)           161.6209         calculate D2E/DX2 analytically  !
 ! D12   D(38,1,4,7)           -13.5616         calculate D2E/DX2 analytically  !
 ! D13   D(38,1,22,5)          144.4328         calculate D2E/DX2 analytically  !
 ! D14   D(38,1,22,6)         -169.9419         calculate D2E/DX2 analytically  !
 ! D15   D(38,1,22,13)          60.2349         calculate D2E/DX2 analytically  !
 ! D16   D(38,1,22,14)         142.1482         calculate D2E/DX2 analytically  !
 ! D17   D(38,1,22,15)        -118.0104         calculate D2E/DX2 analytically  !
 ! D18   D(38,1,22,16)         -54.1419         calculate D2E/DX2 analytically  !
 ! D19   D(38,1,22,17)           2.2436         calculate D2E/DX2 analytically  !
 ! D20   D(3,1,30,11)           14.2262         calculate D2E/DX2 analytically  !
 ! D21   D(3,1,30,32)         -173.9766         calculate D2E/DX2 analytically  !
 ! D22   D(4,1,30,11)          122.8395         calculate D2E/DX2 analytically  !
 ! D23   D(4,1,30,32)          -65.3633         calculate D2E/DX2 analytically  !
 ! D24   D(38,1,30,11)        -119.9314         calculate D2E/DX2 analytically  !
 ! D25   D(38,1,30,32)          51.8658         calculate D2E/DX2 analytically  !
 ! D26   D(3,1,37,35)         -136.3984         calculate D2E/DX2 analytically  !
 ! D27   D(4,1,37,35)           47.4426         calculate D2E/DX2 analytically  !
 ! D28   D(22,1,37,35)         -30.0791         calculate D2E/DX2 analytically  !
 ! D29   D(30,1,37,35)         -50.8479         calculate D2E/DX2 analytically  !
 ! D30   D(10,2,3,1)           151.621          calculate D2E/DX2 analytically  !
 ! D31   D(10,2,3,6)             1.2397         calculate D2E/DX2 analytically  !
 ! D32   D(10,2,3,22)           71.0781         calculate D2E/DX2 analytically  !
 ! D33   D(11,2,3,1)            34.5153         calculate D2E/DX2 analytically  !
 ! D34   D(11,2,3,6)          -115.8661         calculate D2E/DX2 analytically  !
 ! D35   D(11,2,3,22)          -46.0276         calculate D2E/DX2 analytically  !
 ! D36   D(12,2,3,1)           -88.3568         calculate D2E/DX2 analytically  !
 ! D37   D(12,2,3,6)           121.2618         calculate D2E/DX2 analytically  !
 ! D38   D(12,2,3,22)         -168.8998         calculate D2E/DX2 analytically  !
 ! D39   D(3,2,11,23)          106.2696         calculate D2E/DX2 analytically  !
 ! D40   D(3,2,11,26)         -125.2801         calculate D2E/DX2 analytically  !
 ! D41   D(3,2,11,30)          -15.9151         calculate D2E/DX2 analytically  !
 ! D42   D(10,2,11,23)          -8.8295         calculate D2E/DX2 analytically  !
 ! D43   D(10,2,11,26)         119.6207         calculate D2E/DX2 analytically  !
 ! D44   D(10,2,11,30)        -131.0143         calculate D2E/DX2 analytically  !
 ! D45   D(12,2,11,23)        -127.8831         calculate D2E/DX2 analytically  !
 ! D46   D(12,2,11,26)           0.5672         calculate D2E/DX2 analytically  !
 ! D47   D(12,2,11,30)         109.9322         calculate D2E/DX2 analytically  !
 ! D48   D(1,3,6,5)             -7.675          calculate D2E/DX2 analytically  !
 ! D49   D(1,3,6,9)           -179.0117         calculate D2E/DX2 analytically  !
 ! D50   D(2,3,6,5)            146.6232         calculate D2E/DX2 analytically  !
 ! D51   D(2,3,6,9)            -24.7135         calculate D2E/DX2 analytically  !
 ! D52   D(2,3,22,4)           157.6436         calculate D2E/DX2 analytically  !
 ! D53   D(2,3,22,5)          -157.674          calculate D2E/DX2 analytically  !
 ! D54   D(2,3,22,14)          -90.8303         calculate D2E/DX2 analytically  !
 ! D55   D(2,3,22,15)          -50.2776         calculate D2E/DX2 analytically  !
 ! D56   D(2,3,22,16)           -5.4902         calculate D2E/DX2 analytically  !
 ! D57   D(2,3,22,17)           32.5317         calculate D2E/DX2 analytically  !
 ! D58   D(2,3,22,30)           74.6058         calculate D2E/DX2 analytically  !
 ! D59   D(1,4,5,6)              7.5366         calculate D2E/DX2 analytically  !
 ! D60   D(1,4,5,8)            179.9222         calculate D2E/DX2 analytically  !
 ! D61   D(7,4,5,6)           -177.1359         calculate D2E/DX2 analytically  !
 ! D62   D(7,4,5,8)             -4.7503         calculate D2E/DX2 analytically  !
 ! D63   D(7,4,22,3)          -159.3559         calculate D2E/DX2 analytically  !
 ! D64   D(7,4,22,6)           154.6894         calculate D2E/DX2 analytically  !
 ! D65   D(7,4,22,13)           26.8765         calculate D2E/DX2 analytically  !
 ! D66   D(7,4,22,14)           71.527          calculate D2E/DX2 analytically  !
 ! D67   D(7,4,22,15)          110.107          calculate D2E/DX2 analytically  !
 ! D68   D(7,4,22,16)          -54.9443         calculate D2E/DX2 analytically  !
 ! D69   D(7,4,22,17)          -15.6487         calculate D2E/DX2 analytically  !
 ! D70   D(7,4,22,30)          -77.6798         calculate D2E/DX2 analytically  !
 ! D71   D(4,5,6,3)              0.1015         calculate D2E/DX2 analytically  !
 ! D72   D(4,5,6,9)            171.5404         calculate D2E/DX2 analytically  !
 ! D73   D(8,5,6,3)           -172.1845         calculate D2E/DX2 analytically  !
 ! D74   D(8,5,6,9)             -0.7457         calculate D2E/DX2 analytically  !
 ! D75   D(8,5,22,1)          -157.3576         calculate D2E/DX2 analytically  !
 ! D76   D(8,5,22,3)           159.2718         calculate D2E/DX2 analytically  !
 ! D77   D(8,5,22,13)          -18.0983         calculate D2E/DX2 analytically  !
 ! D78   D(8,5,22,14)           21.7011         calculate D2E/DX2 analytically  !
 ! D79   D(8,5,22,15)           57.0783         calculate D2E/DX2 analytically  !
 ! D80   D(8,5,22,16)           54.7947         calculate D2E/DX2 analytically  !
 ! D81   D(8,5,22,17)          -30.6794         calculate D2E/DX2 analytically  !
 ! D82   D(8,5,22,30)         -136.1338         calculate D2E/DX2 analytically  !
 ! D83   D(9,6,22,1)           158.9097         calculate D2E/DX2 analytically  !
 ! D84   D(9,6,22,4)          -158.0776         calculate D2E/DX2 analytically  !
 ! D85   D(9,6,22,13)          -61.4083         calculate D2E/DX2 analytically  !
 ! D86   D(9,6,22,14)          -38.8871         calculate D2E/DX2 analytically  !
 ! D87   D(9,6,22,15)            3.6423         calculate D2E/DX2 analytically  !
 ! D88   D(9,6,22,16)           31.229          calculate D2E/DX2 analytically  !
 ! D89   D(9,6,22,17)           -2.2832         calculate D2E/DX2 analytically  !
 ! D90   D(9,6,22,30)          136.546          calculate D2E/DX2 analytically  !
 ! D91   D(2,11,23,16)         -70.6002         calculate D2E/DX2 analytically  !
 ! D92   D(2,11,23,24)          51.0072         calculate D2E/DX2 analytically  !
 ! D93   D(2,11,23,25)         170.9957         calculate D2E/DX2 analytically  !
 ! D94   D(26,11,23,16)        161.2856         calculate D2E/DX2 analytically  !
 ! D95   D(26,11,23,24)        -77.107          calculate D2E/DX2 analytically  !
 ! D96   D(26,11,23,25)         42.8815         calculate D2E/DX2 analytically  !
 ! D97   D(30,11,23,16)         52.4913         calculate D2E/DX2 analytically  !
 ! D98   D(30,11,23,24)        174.0987         calculate D2E/DX2 analytically  !
 ! D99   D(30,11,23,25)        -65.9128         calculate D2E/DX2 analytically  !
 ! D100  D(2,11,26,27)         176.7559         calculate D2E/DX2 analytically  !
 ! D101  D(2,11,26,28)         -62.5289         calculate D2E/DX2 analytically  !
 ! D102  D(2,11,26,29)          58.2646         calculate D2E/DX2 analytically  !
 ! D103  D(23,11,26,27)        -55.3473         calculate D2E/DX2 analytically  !
 ! D104  D(23,11,26,28)         65.3679         calculate D2E/DX2 analytically  !
 ! D105  D(23,11,26,29)       -173.8386         calculate D2E/DX2 analytically  !
 ! D106  D(30,11,26,27)         59.9085         calculate D2E/DX2 analytically  !
 ! D107  D(30,11,26,28)       -179.3764         calculate D2E/DX2 analytically  !
 ! D108  D(30,11,26,29)        -58.5828         calculate D2E/DX2 analytically  !
 ! D109  D(2,11,30,1)            1.0005         calculate D2E/DX2 analytically  !
 ! D110  D(2,11,30,22)          54.0326         calculate D2E/DX2 analytically  !
 ! D111  D(2,11,30,31)         177.4268         calculate D2E/DX2 analytically  !
 ! D112  D(23,11,30,1)        -122.7778         calculate D2E/DX2 analytically  !
 ! D113  D(23,11,30,22)        -69.7457         calculate D2E/DX2 analytically  !
 ! D114  D(23,11,30,31)         53.6485         calculate D2E/DX2 analytically  !
 ! D115  D(26,11,30,1)         119.0478         calculate D2E/DX2 analytically  !
 ! D116  D(26,11,30,22)        172.0799         calculate D2E/DX2 analytically  !
 ! D117  D(26,11,30,31)        -64.5259         calculate D2E/DX2 analytically  !
 ! D118  D(17,13,14,15)         -0.4259         calculate D2E/DX2 analytically  !
 ! D119  D(17,13,14,19)       -175.4509         calculate D2E/DX2 analytically  !
 ! D120  D(18,13,14,15)        175.7799         calculate D2E/DX2 analytically  !
 ! D121  D(18,13,14,19)          0.7549         calculate D2E/DX2 analytically  !
 ! D122  D(14,13,17,16)          0.6648         calculate D2E/DX2 analytically  !
 ! D123  D(14,13,17,21)       -171.4233         calculate D2E/DX2 analytically  !
 ! D124  D(18,13,17,16)       -175.3533         calculate D2E/DX2 analytically  !
 ! D125  D(18,13,17,21)         12.5586         calculate D2E/DX2 analytically  !
 ! D126  D(18,13,22,1)          26.0784         calculate D2E/DX2 analytically  !
 ! D127  D(18,13,22,4)          -2.7116         calculate D2E/DX2 analytically  !
 ! D128  D(18,13,22,5)         -46.144          calculate D2E/DX2 analytically  !
 ! D129  D(18,13,22,6)         -82.4886         calculate D2E/DX2 analytically  !
 ! D130  D(18,13,22,15)       -154.9019         calculate D2E/DX2 analytically  !
 ! D131  D(18,13,22,16)        160.5058         calculate D2E/DX2 analytically  !
 ! D132  D(18,13,22,30)         81.4878         calculate D2E/DX2 analytically  !
 ! D133  D(13,14,15,16)          0.0127         calculate D2E/DX2 analytically  !
 ! D134  D(13,14,15,20)       -175.7422         calculate D2E/DX2 analytically  !
 ! D135  D(19,14,15,16)        175.0964         calculate D2E/DX2 analytically  !
 ! D136  D(19,14,15,20)         -0.6584         calculate D2E/DX2 analytically  !
 ! D137  D(19,14,22,1)          10.3235         calculate D2E/DX2 analytically  !
 ! D138  D(19,14,22,3)         -53.0105         calculate D2E/DX2 analytically  !
 ! D139  D(19,14,22,4)          36.5919         calculate D2E/DX2 analytically  !
 ! D140  D(19,14,22,5)           8.1811         calculate D2E/DX2 analytically  !
 ! D141  D(19,14,22,6)         -33.9707         calculate D2E/DX2 analytically  !
 ! D142  D(19,14,22,16)       -156.9734         calculate D2E/DX2 analytically  !
 ! D143  D(19,14,22,17)        158.0599         calculate D2E/DX2 analytically  !
 ! D144  D(19,14,22,30)        152.9998         calculate D2E/DX2 analytically  !
 ! D145  D(14,15,16,17)          0.4017         calculate D2E/DX2 analytically  !
 ! D146  D(14,15,16,23)       -160.394          calculate D2E/DX2 analytically  !
 ! D147  D(20,15,16,17)        176.0895         calculate D2E/DX2 analytically  !
 ! D148  D(20,15,16,23)         15.2938         calculate D2E/DX2 analytically  !
 ! D149  D(20,15,22,1)         -24.3854         calculate D2E/DX2 analytically  !
 ! D150  D(20,15,22,3)         -16.4901         calculate D2E/DX2 analytically  !
 ! D151  D(20,15,22,4)          65.0914         calculate D2E/DX2 analytically  !
 ! D152  D(20,15,22,5)          60.5079         calculate D2E/DX2 analytically  !
 ! D153  D(20,15,22,6)          23.343          calculate D2E/DX2 analytically  !
 ! D154  D(20,15,22,13)        156.798          calculate D2E/DX2 analytically  !
 ! D155  D(20,15,22,17)       -158.7231         calculate D2E/DX2 analytically  !
 ! D156  D(20,15,22,30)       -105.3729         calculate D2E/DX2 analytically  !
 ! D157  D(15,16,17,13)         -0.6598         calculate D2E/DX2 analytically  !
 ! D158  D(15,16,17,21)        171.5503         calculate D2E/DX2 analytically  !
 ! D159  D(23,16,17,13)        160.2363         calculate D2E/DX2 analytically  !
 ! D160  D(23,16,17,21)        -27.5536         calculate D2E/DX2 analytically  !
 ! D161  D(23,16,22,1)         -15.1003         calculate D2E/DX2 analytically  !
 ! D162  D(23,16,22,3)          28.195          calculate D2E/DX2 analytically  !
 ! D163  D(23,16,22,4)         -70.1622         calculate D2E/DX2 analytically  !
 ! D164  D(23,16,22,5)         122.8716         calculate D2E/DX2 analytically  !
 ! D165  D(23,16,22,6)          76.186          calculate D2E/DX2 analytically  !
 ! D166  D(23,16,22,13)       -157.0945         calculate D2E/DX2 analytically  !
 ! D167  D(23,16,22,14)        157.9166         calculate D2E/DX2 analytically  !
 ! D168  D(23,16,22,30)        -47.7204         calculate D2E/DX2 analytically  !
 ! D169  D(15,16,23,11)         84.1829         calculate D2E/DX2 analytically  !
 ! D170  D(15,16,23,24)        -37.1049         calculate D2E/DX2 analytically  !
 ! D171  D(15,16,23,25)       -159.0341         calculate D2E/DX2 analytically  !
 ! D172  D(17,16,23,11)        -73.6988         calculate D2E/DX2 analytically  !
 ! D173  D(17,16,23,24)        165.0134         calculate D2E/DX2 analytically  !
 ! D174  D(17,16,23,25)         43.0841         calculate D2E/DX2 analytically  !
 ! D175  D(22,16,23,11)          5.8913         calculate D2E/DX2 analytically  !
 ! D176  D(22,16,23,24)       -115.3965         calculate D2E/DX2 analytically  !
 ! D177  D(22,16,23,25)        122.6743         calculate D2E/DX2 analytically  !
 ! D178  D(21,17,22,1)           5.25           calculate D2E/DX2 analytically  !
 ! D179  D(21,17,22,3)          61.5922         calculate D2E/DX2 analytically  !
 ! D180  D(21,17,22,4)         -46.0836         calculate D2E/DX2 analytically  !
 ! D181  D(21,17,22,5)        -102.1297         calculate D2E/DX2 analytically  !
 ! D182  D(21,17,22,6)         162.594          calculate D2E/DX2 analytically  !
 ! D183  D(21,17,22,14)       -158.5401         calculate D2E/DX2 analytically  !
 ! D184  D(21,17,22,15)        156.3556         calculate D2E/DX2 analytically  !
 ! D185  D(21,17,22,30)         18.5045         calculate D2E/DX2 analytically  !
 ! D186  D(3,22,30,11)         -61.7484         calculate D2E/DX2 analytically  !
 ! D187  D(3,22,30,31)        -155.6419         calculate D2E/DX2 analytically  !
 ! D188  D(3,22,30,32)         107.9499         calculate D2E/DX2 analytically  !
 ! D189  D(4,22,30,11)        -133.8746         calculate D2E/DX2 analytically  !
 ! D190  D(4,22,30,31)         132.2318         calculate D2E/DX2 analytically  !
 ! D191  D(4,22,30,32)          35.8236         calculate D2E/DX2 analytically  !
 ! D192  D(5,22,30,11)        -122.8536         calculate D2E/DX2 analytically  !
 ! D193  D(5,22,30,31)         143.2529         calculate D2E/DX2 analytically  !
 ! D194  D(5,22,30,32)          46.8447         calculate D2E/DX2 analytically  !
 ! D195  D(6,22,30,11)         -72.7278         calculate D2E/DX2 analytically  !
 ! D196  D(6,22,30,31)        -166.6214         calculate D2E/DX2 analytically  !
 ! D197  D(6,22,30,32)          96.9704         calculate D2E/DX2 analytically  !
 ! D198  D(13,22,30,11)        121.4578         calculate D2E/DX2 analytically  !
 ! D199  D(13,22,30,31)         27.5642         calculate D2E/DX2 analytically  !
 ! D200  D(13,22,30,32)        -68.844          calculate D2E/DX2 analytically  !
 ! D201  D(14,22,30,11)         99.1483         calculate D2E/DX2 analytically  !
 ! D202  D(14,22,30,31)          5.2547         calculate D2E/DX2 analytically  !
 ! D203  D(14,22,30,32)        -91.1535         calculate D2E/DX2 analytically  !
 ! D204  D(15,22,30,11)         41.8134         calculate D2E/DX2 analytically  !
 ! D205  D(15,22,30,31)        -52.0801         calculate D2E/DX2 analytically  !
 ! D206  D(15,22,30,32)       -148.4883         calculate D2E/DX2 analytically  !
 ! D207  D(16,22,30,11)         52.2871         calculate D2E/DX2 analytically  !
 ! D208  D(16,22,30,31)        -41.6064         calculate D2E/DX2 analytically  !
 ! D209  D(16,22,30,32)       -138.0146         calculate D2E/DX2 analytically  !
 ! D210  D(17,22,30,11)         94.16           calculate D2E/DX2 analytically  !
 ! D211  D(17,22,30,31)          0.2664         calculate D2E/DX2 analytically  !
 ! D212  D(17,22,30,32)        -96.1418         calculate D2E/DX2 analytically  !
 ! D213  D(11,30,31,33)       -162.9203         calculate D2E/DX2 analytically  !
 ! D214  D(22,30,31,33)        -87.8742         calculate D2E/DX2 analytically  !
 ! D215  D(32,30,31,33)         25.0089         calculate D2E/DX2 analytically  !
 ! D216  D(1,30,32,34)         139.5392         calculate D2E/DX2 analytically  !
 ! D217  D(1,30,32,35)         -68.9464         calculate D2E/DX2 analytically  !
 ! D218  D(22,30,32,34)         89.9958         calculate D2E/DX2 analytically  !
 ! D219  D(22,30,32,35)       -118.4897         calculate D2E/DX2 analytically  !
 ! D220  D(31,30,32,34)        -35.6536         calculate D2E/DX2 analytically  !
 ! D221  D(31,30,32,35)        115.8609         calculate D2E/DX2 analytically  !
 ! D222  D(30,31,33,34)         -9.0925         calculate D2E/DX2 analytically  !
 ! D223  D(30,31,33,36)        169.3838         calculate D2E/DX2 analytically  !
 ! D224  D(30,32,34,33)         38.3681         calculate D2E/DX2 analytically  !
 ! D225  D(30,32,34,39)        158.7877         calculate D2E/DX2 analytically  !
 ! D226  D(30,32,34,54)        -78.7149         calculate D2E/DX2 analytically  !
 ! D227  D(35,32,34,33)       -104.5287         calculate D2E/DX2 analytically  !
 ! D228  D(35,32,34,39)         15.8909         calculate D2E/DX2 analytically  !
 ! D229  D(35,32,34,54)        138.3883         calculate D2E/DX2 analytically  !
 ! D230  D(30,32,35,37)         28.8109         calculate D2E/DX2 analytically  !
 ! D231  D(30,32,35,40)       -155.7767         calculate D2E/DX2 analytically  !
 ! D232  D(34,32,35,37)        170.9777         calculate D2E/DX2 analytically  !
 ! D233  D(34,32,35,40)        -13.6099         calculate D2E/DX2 analytically  !
 ! D234  D(31,33,34,32)        -19.7686         calculate D2E/DX2 analytically  !
 ! D235  D(31,33,34,39)       -142.8615         calculate D2E/DX2 analytically  !
 ! D236  D(31,33,34,54)         94.0026         calculate D2E/DX2 analytically  !
 ! D237  D(36,33,34,32)        161.6722         calculate D2E/DX2 analytically  !
 ! D238  D(36,33,34,39)         38.5792         calculate D2E/DX2 analytically  !
 ! D239  D(36,33,34,54)        -84.5566         calculate D2E/DX2 analytically  !
 ! D240  D(32,34,54,55)        -84.6568         calculate D2E/DX2 analytically  !
 ! D241  D(32,34,54,56)         33.831          calculate D2E/DX2 analytically  !
 ! D242  D(32,34,54,57)        155.0102         calculate D2E/DX2 analytically  !
 ! D243  D(33,34,54,55)        160.3843         calculate D2E/DX2 analytically  !
 ! D244  D(33,34,54,56)        -81.1279         calculate D2E/DX2 analytically  !
 ! D245  D(33,34,54,57)         40.0512         calculate D2E/DX2 analytically  !
 ! D246  D(39,34,54,55)         38.8388         calculate D2E/DX2 analytically  !
 ! D247  D(39,34,54,56)        157.3265         calculate D2E/DX2 analytically  !
 ! D248  D(39,34,54,57)        -81.4943         calculate D2E/DX2 analytically  !
 ! D249  D(32,35,37,38)         15.1178         calculate D2E/DX2 analytically  !
 ! D250  D(40,35,37,38)       -160.0334         calculate D2E/DX2 analytically  !
 ! D251  D(32,35,40,42)       -179.7734         calculate D2E/DX2 analytically  !
 ! D252  D(37,35,40,42)         -4.5543         calculate D2E/DX2 analytically  !
 ! D253  D(35,40,42,41)        -59.4454         calculate D2E/DX2 analytically  !
 ! D254  D(35,40,42,43)         63.853          calculate D2E/DX2 analytically  !
 ! D255  D(35,40,42,44)       -177.7251         calculate D2E/DX2 analytically  !
 ! D256  D(45,41,42,40)        -54.1131         calculate D2E/DX2 analytically  !
 ! D257  D(45,41,42,43)       -177.0034         calculate D2E/DX2 analytically  !
 ! D258  D(45,41,42,44)         60.0733         calculate D2E/DX2 analytically  !
 ! D259  D(46,41,42,40)       -174.0414         calculate D2E/DX2 analytically  !
 ! D260  D(46,41,42,43)         63.0683         calculate D2E/DX2 analytically  !
 ! D261  D(46,41,42,44)        -59.8549         calculate D2E/DX2 analytically  !
 ! D262  D(47,41,42,40)         65.8968         calculate D2E/DX2 analytically  !
 ! D263  D(47,41,42,43)        -56.9935         calculate D2E/DX2 analytically  !
 ! D264  D(47,41,42,44)       -179.9168         calculate D2E/DX2 analytically  !
 ! D265  D(40,42,43,48)        174.6599         calculate D2E/DX2 analytically  !
 ! D266  D(40,42,43,49)         54.7911         calculate D2E/DX2 analytically  !
 ! D267  D(40,42,43,50)        -65.2127         calculate D2E/DX2 analytically  !
 ! D268  D(41,42,43,48)        -62.5607         calculate D2E/DX2 analytically  !
 ! D269  D(41,42,43,49)        177.5706         calculate D2E/DX2 analytically  !
 ! D270  D(41,42,43,50)         57.5667         calculate D2E/DX2 analytically  !
 ! D271  D(44,42,43,48)         60.3382         calculate D2E/DX2 analytically  !
 ! D272  D(44,42,43,49)        -59.5305         calculate D2E/DX2 analytically  !
 ! D273  D(44,42,43,50)       -179.5344         calculate D2E/DX2 analytically  !
 ! D274  D(40,42,44,51)        179.5176         calculate D2E/DX2 analytically  !
 ! D275  D(40,42,44,52)         59.1722         calculate D2E/DX2 analytically  !
 ! D276  D(40,42,44,53)        -60.127          calculate D2E/DX2 analytically  !
 ! D277  D(41,42,44,51)         61.3163         calculate D2E/DX2 analytically  !
 ! D278  D(41,42,44,52)        -59.0291         calculate D2E/DX2 analytically  !
 ! D279  D(41,42,44,53)       -178.3283         calculate D2E/DX2 analytically  !
 ! D280  D(43,42,44,51)        -62.0353         calculate D2E/DX2 analytically  !
 ! D281  D(43,42,44,52)        177.6193         calculate D2E/DX2 analytically  !
 ! D282  D(43,42,44,53)         58.32           calculate D2E/DX2 analytically  !
 --------------------------------------------------------------------------------
 Trust Radius=3.00D-01 FncErr=1.00D-07 GrdErr=1.00D-07 EigMax=2.50D+02 EigMin=1.00D-04
 Number of steps in this run=    342 maximum allowed number of steps=    342.
 Search for a saddle point of order  1.
 GradGradGradGradGradGradGradGradGradGradGradGradGradGradGradGradGradGrad

 Leave Link  103 at Sun Sep 28 17:25:37 2025, MaxMem=   104857600 cpu:               0.0 elap:               0.1
 (Enter /home/echo/g16/l202.exe)
 Stoichiometry    C21H28FeN2O4Pd
 Framework group  C1[X(C21H28FeN2O4Pd)]
 Deg. of freedom   165
 Full point group                 C1      NOp   1
 Largest Abelian subgroup         C1      NOp   1
 Largest concise Abelian subgroup C1      NOp   1
                         Standard orientation:                         
 ---------------------------------------------------------------------
 Center     Atomic      Atomic             Coordinates (Angstroms)
 Number     Number       Type             X           Y           Z
 ---------------------------------------------------------------------
      1          6           0       -0.442769   -1.692840   -0.237800
      2          6           0       -2.147169   -1.617491    1.679060
      3          6           0       -1.690239   -2.056551    0.342260
      4          6           0       -0.748190   -1.480750   -1.608850
      5          6           0       -2.035809   -1.961261   -1.894500
      6          6           0       -2.630569   -2.324621   -0.679850
      7          1           0       -0.083570   -1.091370   -2.349890
      8          1           0       -2.511139   -1.925621   -2.846150
      9          1           0       -3.649599   -2.604941   -0.547050
     10          1           0       -3.236099   -1.600491    1.626600
     11          7           0       -1.661120   -0.246451    1.945550
     12          1           0       -1.837189   -2.272941    2.497120
     13          6           0       -2.663630    0.988639   -1.807080
     14          6           0       -3.706540    0.068159   -1.613760
     15          6           0       -3.964110   -0.024981   -0.235240
     16          6           0       -3.081700    0.837219    0.424100
     17          6           0       -2.271750    1.482089   -0.549200
     18          1           0       -2.226160    1.199589   -2.754500
     19          1           0       -4.168580   -0.524581   -2.365980
     20          1           0       -4.658930   -0.692441    0.218980
     21          1           0       -1.593000    2.289159   -0.359670
     22         26           0       -2.130620   -0.478391   -0.651120
     23          6           0       -2.735800    0.742819    1.853410
     24          1           0       -3.600700    0.446989    2.461470
     25          1           0       -2.348210    1.696849    2.215590
     26          6           0       -0.906680   -0.156260    3.195050
     27          1           0       -0.523950    0.861150    3.312470
     28          1           0       -1.524240   -0.406390    4.069380
     29          1           0       -0.055920   -0.845690    3.149740
     30         46           0       -0.099650    0.282980    0.585780
     31          8           0        0.367660    2.187750    1.040520
     32          7           0        1.501310    0.486560   -0.564220
     33          6           0        1.028240    2.755580    0.104460
     34          6           0        1.519510    1.825470   -1.061580
     35          6           0        2.444280   -0.313630   -0.181400
     36          8           0        1.266790    3.948390    0.055810
     37          8           0        2.133310   -1.413790    0.388080
     38          1           0        0.826491   -1.659300    0.175130
     39          1           0        2.511950    2.154330   -1.390020
     40          8           0        3.704490    0.017900   -0.490880
     41          6           0        4.862610   -0.973360    1.410840
     42          6           0        4.815560   -0.815910   -0.109370
     43          6           0        4.726671   -2.176080   -0.803140
     44          6           0        6.039800   -0.043340   -0.603400
     45          1           0        4.872100    0.006530    1.884030
     46          1           0        5.760260   -1.514100    1.697870
     47          1           0        3.991580   -1.524050    1.756510
     48          1           0        5.616711   -2.758540   -0.581760
     49          1           0        4.651091   -2.039720   -1.879940
     50          1           0        3.851381   -2.718120   -0.455530
     51          1           0        6.947590   -0.586120   -0.356780
     52          1           0        6.071840    0.937730   -0.137000
     53          1           0        5.984930    0.090360   -1.680600
     54          6           0        0.500920    1.840020   -2.214560
     55          1           0        0.972740    1.498200   -3.133750
     56          1           0       -0.308870    1.141660   -1.944810
     57          1           0        0.112320    2.842660   -2.372370
 ---------------------------------------------------------------------
 Rotational constants (GHZ):           0.2896460           0.1240164           0.1158332
 Leave Link  202 at Sun Sep 28 17:25:37 2025, MaxMem=   104857600 cpu:               0.0 elap:               0.0
 (Enter /home/echo/g16/l301.exe)
 Standard basis: STO-3G (5D, 7F)
 Ernie: Thresh=  0.10000D-02 Tol=  0.10000D-05 Strict=F.
 There are   211 symmetry adapted cartesian basis functions of A   symmetry.
 There are   208 symmetry adapted basis functions of A   symmetry.
   208 basis functions,   633 primitive gaussians,   211 cartesian basis functions
   136 alpha electrons      136 beta electrons
       nuclear repulsion energy      5343.4882387428 Hartrees.
 IExCor=    0 DFT=F Ex=HF Corr=None ExCW=0 ScaHFX=  1.000000
 ScaDFX=  1.000000  1.000000  1.000000  1.000000 ScalE2=  1.000000  1.000000
 IRadAn=      5 IRanWt=     -1 IRanGd=            0 ICorTp=0 IEmpDi=  4
 NAtoms=   57 NActive=   57 NUniq=   57 SFac= 1.00D+00 NAtFMM=   60 NAOKFM=F Big=F
 Integral buffers will be    131072 words long.
 Raffenetti 1 integral format.
 Two-electron integral symmetry is turned on.
 Leave Link  301 at Sun Sep 28 17:25:37 2025, MaxMem=   104857600 cpu:               0.0 elap:               0.0
 (Enter /home/echo/g16/l402.exe)
 External calculation of energy, first and second derivatives.
 Running external command "./xtb.sh R"
         input file       "/home/echo/scratch/Gau-16385.EIn"
         output file      "/home/echo/scratch/Gau-16385.EOu"
         message file     "/home/echo/scratch/Gau-16385.EMs"
         fchk file        "/home/echo/scratch/Gau-16385.EFC"
         mat. el file     "/home/echo/scratch/Gau-16385.EUF"
Generating mol.tmp
Generating mol.xyz via genxyz
Running: xtb mol.xyz --chrg 0 --uhf 0 --gfn2 --hess --grad > xtbout
xtb running finished!
Extracting data from xtb outputs via extderi
 Recovered energy= -89.2295373895     dipole=      0.000000000000      0.000000000000      0.000000000000
 Energy=    -89.2295374     NIter=   0.
 Dipole moment=       0.000000       0.000000       0.000000
 Leave Link  402 at Sun Sep 28 17:25:44 2025, MaxMem=   104857600 cpu:               0.0 elap:               6.8
 (Enter /home/echo/g16/l601.exe)
 Leave Link  601 at Sun Sep 28 17:25:44 2025, MaxMem=   104857600 cpu:               0.0 elap:               0.0
 (Enter /home/echo/g16/l716.exe)
 Dipole        = 0.00000000D+00 0.00000000D+00 0.00000000D+00
 ***** Axes restored to original set *****
 -------------------------------------------------------------------
 Center     Atomic                   Forces (Hartrees/Bohr)
 Number     Number              X              Y              Z
 -------------------------------------------------------------------
      1        6          -0.021627076    0.022281371   -0.014846840
      2        6           0.000012319   -0.000006865   -0.000010489
      3        6          -0.000003721   -0.000006680   -0.000019486
      4        6           0.000018286    0.000007978    0.000046217
      5        6           0.000010732    0.000010386   -0.000008986
      6        6           0.000005353   -0.000001163    0.000025232
      7        1          -0.000009283    0.000002507   -0.000011804
      8        1          -0.000002303   -0.000007341   -0.000000905
      9        1          -0.000003499    0.000000836   -0.000011864
     10        1          -0.000000390    0.000003868    0.000001408
     11        7          -0.007217749    0.002449490    0.006280752
     12        1          -0.000000386    0.000002453    0.000000754
     13        6           0.000021226   -0.000020207   -0.000014850
     14        6          -0.000017261    0.000001833    0.000003559
     15        6           0.000009722    0.000010830    0.000025329
     16        6          -0.000029671    0.000031927    0.000002056
     17        6           0.000009791    0.000004876    0.000023992
     18        1          -0.000000822    0.000002022   -0.000003570
     19        1           0.000009175   -0.000002940    0.000001264
     20        1          -0.000002703   -0.000004496   -0.000002378
     21        1          -0.000005787   -0.000006150   -0.000010653
     22       26          -0.000022272   -0.000038991   -0.000056421
     23        6           0.000016971   -0.000016078    0.000005044
     24        1          -0.000004936   -0.000000935    0.000003426
     25        1          -0.000003785    0.000002750   -0.000000150
     26        6          -0.000005816   -0.000002800    0.000006943
     27        1           0.000000339   -0.000000042   -0.000000070
     28        1           0.000001403   -0.000000896   -0.000002978
     29        1           0.000002686    0.000001981   -0.000000861
     30       46           0.001632309   -0.036635392    0.015336794
     31        8          -0.003427642    0.014021021   -0.003363736
     32        7           0.012826356   -0.001628966   -0.009177160
     33        6          -0.000016910    0.000008954    0.000014432
     34        6           0.000004029    0.000012816    0.000000211
     35        6          -0.000011392   -0.000015603   -0.000022434
     36        8           0.000001359   -0.000007395   -0.000001629
     37        8          -0.027855222    0.005225201   -0.004524950
     38        1           0.045697207   -0.005683562    0.010314291
     39        1          -0.000002673    0.000002694   -0.000004218
     40        8           0.000007591    0.000010757    0.000002034
     41        6           0.000001590    0.000004383    0.000006758
     42        6          -0.000017879   -0.000012904   -0.000004837
     43        6          -0.000000390    0.000007734   -0.000001898
     44        6           0.000004445   -0.000001764   -0.000002698
     45        1          -0.000002183   -0.000000051    0.000000299
     46        1           0.000000185   -0.000002178   -0.000002116
     47        1          -0.000000039   -0.000000312    0.000000307
     48        1          -0.000001929   -0.000001390   -0.000002436
     49        1          -0.000000636    0.000000412    0.000003396
     50        1           0.000003941   -0.000002163   -0.000000867
     51        1           0.000000073    0.000000953   -0.000000478
     52        1           0.000000390   -0.000000074    0.000000114
     53        1           0.000000480   -0.000000739    0.000002567
     54        6          -0.000000315   -0.000000147    0.000001678
     55        1          -0.000000674   -0.000002172    0.000000987
     56        1          -0.000004690    0.000000822    0.000001289
     57        1           0.000002076   -0.000000457    0.000000628
 -------------------------------------------------------------------
 Cartesian Forces:  Max     0.045697207 RMS     0.006110039
 FormGI is forming the generalized inverse of G from B-inverse, IUseBI=4.
 Leave Link  716 at Sun Sep 28 17:25:44 2025, MaxMem=   104857600 cpu:               0.1 elap:               0.1
 (Enter /home/echo/g16/l103.exe)

 GradGradGradGradGradGradGradGradGradGradGradGradGradGradGradGradGradGrad
 Berny optimization.
 Red2BG is reusing G-inverse.
 Internal  Forces:  Max     0.025444205 RMS     0.001870746
 Search for a saddle point.
 Step number   1 out of a maximum of  342
 All quantities printed in internal units (Hartrees-Bohrs-Radians)
 Swapping is turned off.
 Second derivative matrix not updated -- analytic derivatives used.
 ITU=  0
     Eigenvalues ---   -0.01553   0.00109   0.00130   0.00207   0.00219
     Eigenvalues ---    0.00232   0.00266   0.00274   0.00330   0.00362
     Eigenvalues ---    0.00465   0.00484   0.00543   0.00712   0.00756
     Eigenvalues ---    0.00831   0.00896   0.00944   0.00967   0.01011
     Eigenvalues ---    0.01029   0.01068   0.01104   0.01175   0.01186
     Eigenvalues ---    0.01249   0.01296   0.01375   0.01423   0.01514
     Eigenvalues ---    0.01521   0.01562   0.01794   0.01871   0.01936
     Eigenvalues ---    0.01973   0.02334   0.02374   0.02540   0.02662
     Eigenvalues ---    0.02790   0.03090   0.03221   0.03354   0.03495
     Eigenvalues ---    0.03537   0.03625   0.03658   0.03781   0.03899
     Eigenvalues ---    0.04147   0.04179   0.04258   0.04537   0.04555
     Eigenvalues ---    0.04563   0.04621   0.04652   0.04695   0.04722
     Eigenvalues ---    0.04747   0.04754   0.04830   0.04970   0.05071
     Eigenvalues ---    0.05399   0.05652   0.05720   0.05846   0.05995
     Eigenvalues ---    0.06184   0.06224   0.06461   0.06794   0.07241
     Eigenvalues ---    0.07598   0.07778   0.08185   0.08525   0.08719
     Eigenvalues ---    0.09726   0.10189   0.10265   0.11121   0.11207
     Eigenvalues ---    0.11572   0.11921   0.11945   0.11982   0.11992
     Eigenvalues ---    0.12143   0.12344   0.12522   0.12700   0.13081
     Eigenvalues ---    0.13314   0.13754   0.13878   0.14036   0.14159
     Eigenvalues ---    0.14521   0.14595   0.15335   0.15646   0.15809
     Eigenvalues ---    0.16071   0.16497   0.16725   0.17013   0.17280
     Eigenvalues ---    0.19656   0.19790   0.19929   0.22128   0.22635
     Eigenvalues ---    0.23758   0.23953   0.24915   0.25361   0.25766
     Eigenvalues ---    0.26258   0.26713   0.27706   0.28448   0.29101
     Eigenvalues ---    0.29254   0.29379   0.29785   0.29947   0.30112
     Eigenvalues ---    0.30405   0.30537   0.30705   0.31071   0.31225
     Eigenvalues ---    0.31431   0.31702   0.31987   0.32140   0.32405
     Eigenvalues ---    0.32488   0.32589   0.32743   0.33003   0.33222
     Eigenvalues ---    0.33545   0.33790   0.34090   0.35102   0.35193
     Eigenvalues ---    0.35530   0.36482   0.36721   0.36745   0.37152
     Eigenvalues ---    0.37313   0.37565   0.37630   0.38012   0.39182
     Eigenvalues ---    0.44980   0.46432   0.50482   0.60406   0.80711
 Eigenvectors required to have negative eigenvalues:
                          R55       R5        R4        R53      A169
   1                   -0.65716   0.65683  -0.10469   0.08398   0.08347
                          D27      D250       D28       D15      D249
   1                    0.08102  -0.07704   0.07618  -0.06975  -0.06955
 RFO step:  Lambda0=2.157964348D-02 Lambda=-1.73791697D-02.
 Linear search not attempted -- option 19 set.
 Maximum step size (   0.300) exceeded in Quadratic search.
    -- Step size scaled by   0.388
 Iteration  1 RMS(Cart)=  0.02420505 RMS(Int)=  0.00040484
 Iteration  2 RMS(Cart)=  0.00125770 RMS(Int)=  0.00020844
 Iteration  3 RMS(Cart)=  0.00000127 RMS(Int)=  0.00020844
 Iteration  4 RMS(Cart)=  0.00000000 RMS(Int)=  0.00020844
 ITry= 1 IFail=0 DXMaxC= 1.48D-01 DCOld= 1.00D+10 DXMaxT= 3.00D-01 DXLimC= 3.00D+00 Rises=F
 Variable       Old X    -DE/DX   Delta X   Delta X   Delta X     New X
                                 (Linear)    (Quad)   (Total)
    R1        2.68908  -0.00072   0.00000   0.00335   0.00372   2.69280
    R2        2.68450   0.00116   0.00000   0.00595   0.00580   2.69030
    R3        4.00629  -0.00129   0.00000  -0.01531  -0.01488   3.99141
    R4        4.09678  -0.01141   0.00000  -0.13312  -0.13239   3.96439
    R5        2.52309  -0.02136   0.00000   0.15573   0.15580   2.67889
    R6        2.79564  -0.00221   0.00000  -0.00443  -0.00465   2.79099
    R7        2.06042  -0.00000   0.00000  -0.00043  -0.00043   2.05998
    R8        2.79463  -0.00122   0.00000   0.00206   0.00170   2.79633
    R9        2.06571  -0.00000   0.00000   0.00023   0.00023   2.06594
   R10        2.67300   0.00020   0.00000  -0.00206  -0.00229   2.67072
   R11        3.62085  -0.00068   0.00000  -0.00388  -0.00417   3.61668
   R12        2.65266   0.00032   0.00000   0.00007   0.00014   2.65280
   R13        2.01987  -0.00000   0.00000   0.00037   0.00037   2.02024
   R14        3.69976  -0.00132   0.00000  -0.00685  -0.00637   3.69339
   R15        2.64639  -0.00010   0.00000   0.00014  -0.00003   2.64636
   R16        2.01133  -0.00000   0.00000   0.00012   0.00012   2.01146
   R17        3.66133  -0.00061   0.00000  -0.00369  -0.00353   3.65780
   R18        2.01292  -0.00000   0.00000  -0.00015  -0.00015   2.01277
   R19        3.61493  -0.00052   0.00000  -0.00163  -0.00183   3.61311
   R20        2.76578   0.00086   0.00000   0.00292   0.00305   2.76883
   R21        2.76350  -0.00000   0.00000   0.00078   0.00078   2.76428
   R22        4.03865  -0.00670   0.00000  -0.07621  -0.07625   3.96240
   R23        2.65392  -0.00010   0.00000  -0.00030  -0.00024   2.65367
   R24        2.65863   0.00001   0.00000   0.00036   0.00042   2.65905
   R25        2.01190  -0.00000   0.00000  -0.00007  -0.00007   2.01183
   R26        3.67041   0.00033   0.00000  -0.00397  -0.00400   3.66641
   R27        2.65595  -0.00045   0.00000  -0.00056  -0.00052   2.65543
   R28        2.00939   0.00001   0.00000  -0.00006  -0.00006   2.00933
   R29        3.63934   0.00051   0.00000  -0.00281  -0.00276   3.63657
   R30        2.64343   0.00069   0.00000   0.00161   0.00160   2.64504
   R31        2.01289   0.00000   0.00000  -0.00006  -0.00006   2.01282
   R32        3.65467  -0.00022   0.00000  -0.00347  -0.00350   3.65117
   R33        2.68527  -0.00065   0.00000  -0.00285  -0.00293   2.68233
   R34        3.67962  -0.00122   0.00000  -0.00479  -0.00492   3.67470
   R35        2.78469  -0.00082   0.00000  -0.00199  -0.00203   2.78266
   R36        2.02473   0.00000   0.00000  -0.00063  -0.00063   2.02410
   R37        3.71935  -0.00029   0.00000  -0.00243  -0.00249   3.71685
   R38        4.71843  -0.00481   0.00000  -0.00845  -0.00854   4.70990
   R39        2.07466  -0.00001   0.00000  -0.00051  -0.00051   2.07415
   R40        2.06281   0.00000   0.00000   0.00016   0.00016   2.06297
   R41        2.06611  -0.00000   0.00000  -0.00006  -0.00006   2.06605
   R42        2.07732   0.00000   0.00000  -0.00026  -0.00026   2.07706
   R43        2.07109  -0.00000   0.00000   0.00030   0.00030   2.07139
   R44        3.80456   0.01350   0.00000   0.06347   0.06345   3.86801
   R45        3.74481  -0.01076   0.00000  -0.02527  -0.02581   3.71900
   R46        2.41634  -0.00207   0.00000  -0.00656  -0.00658   2.40977
   R47        2.69932   0.00147   0.00000   0.00065   0.00058   2.69990
   R48        2.44648  -0.00010   0.00000  -0.01050  -0.01078   2.43570
   R49        2.96759  -0.00051   0.00000   0.00721   0.00718   2.97478
   R50        2.30056  -0.00001   0.00000   0.00009   0.00009   2.30065
   R51        2.07092   0.00000   0.00000  -0.00017  -0.00017   2.07075
   R52        2.90742   0.00000   0.00000  -0.00042  -0.00042   2.90700
   R53        2.41365  -0.00381   0.00000   0.02155   0.02160   2.43525
   R54        2.53098   0.00000   0.00000  -0.00752  -0.00752   2.52345
   R55        2.54475   0.02544   0.00000  -0.13890  -0.13875   2.40600
   R56        2.72230   0.00001   0.00000   0.00255   0.00255   2.72485
   R57        2.88952  -0.00001   0.00000  -0.00064  -0.00064   2.88888
   R58        2.05640  -0.00000   0.00000  -0.00006  -0.00006   2.05635
   R59        2.05326   0.00000   0.00000  -0.00008  -0.00008   2.05318
   R60        2.05402   0.00000   0.00000  -0.00006  -0.00006   2.05396
   R61        2.89028  -0.00000   0.00000  -0.00053  -0.00053   2.88975
   R62        2.89054  -0.00001   0.00000  -0.00024  -0.00024   2.89029
   R63        2.05315   0.00000   0.00000  -0.00006  -0.00006   2.05309
   R64        2.05607   0.00000   0.00000  -0.00007  -0.00007   2.05600
   R65        2.05344   0.00000   0.00000  -0.00005  -0.00005   2.05339
   R66        2.05235  -0.00000   0.00000  -0.00013  -0.00013   2.05221
   R67        2.05368  -0.00000   0.00000  -0.00009  -0.00009   2.05360
   R68        2.05385   0.00000   0.00000  -0.00009  -0.00009   2.05376
   R69        2.05656   0.00000   0.00000   0.00053   0.00053   2.05709
   R70        2.08404  -0.00000   0.00000  -0.00043  -0.00043   2.08362
   R71        2.05381   0.00000   0.00000  -0.00003  -0.00003   2.05378
    A1        1.81636  -0.00054   0.00000  -0.00763  -0.00787   1.80849
    A2        1.78937   0.00110   0.00000   0.01790   0.01751   1.80688
    A3        2.36560  -0.00025   0.00000   0.01753   0.01625   2.38185
    A4        1.83859   0.00039   0.00000   0.02402   0.02432   1.86291
    A5        2.09339   0.00055   0.00000  -0.01629  -0.01610   2.07729
    A6        2.50269   0.00117   0.00000   0.02706   0.02681   2.52950
    A7        1.27569   0.00026   0.00000   0.00817   0.00829   1.28398
    A8        1.84379   0.00048   0.00000   0.00350   0.00356   1.84735
    A9        1.91396  -0.00125   0.00000  -0.01042  -0.01051   1.90345
   A10        1.99401   0.00024   0.00000   0.00286   0.00283   1.99684
   A11        1.89912   0.00057   0.00000   0.00294   0.00295   1.90207
[...]
 ! D147  D(20,15,16,17)        175.5049         -DE/DX =    0.0                 !
 ! D148  D(20,15,16,23)         15.2293         -DE/DX =    0.0                 !
 ! D149  D(20,15,22,1)         -32.9631         -DE/DX =    0.0                 !
 ! D150  D(20,15,22,3)         -17.3384         -DE/DX =    0.0                 !
 ! D151  D(20,15,22,4)          64.4463         -DE/DX =    0.0                 !
 ! D152  D(20,15,22,5)          60.3379         -DE/DX =    0.0                 !
 ! D153  D(20,15,22,6)          23.5249         -DE/DX =    0.0                 !
 ! D154  D(20,15,22,13)        156.3389         -DE/DX =    0.0                 !
 ! D155  D(20,15,22,17)       -159.0819         -DE/DX =    0.0                 !
 ! D156  D(20,15,22,30)       -101.7032         -DE/DX =    0.0                 !
 ! D157  D(15,16,17,13)         -1.0192         -DE/DX =    0.0                 !
 ! D158  D(15,16,17,21)        171.9431         -DE/DX =    0.0                 !
 ! D159  D(23,16,17,13)        159.8322         -DE/DX =    0.0                 !
 ! D160  D(23,16,17,21)        -27.2056         -DE/DX =    0.0                 !
 ! D161  D(23,16,22,1)         -16.2606         -DE/DX =    0.0                 !
 ! D162  D(23,16,22,3)          29.0088         -DE/DX =    0.0                 !
 ! D163  D(23,16,22,4)         -66.0497         -DE/DX =    0.0                 !
 ! D164  D(23,16,22,5)         125.0865         -DE/DX =    0.0                 !
 ! D165  D(23,16,22,6)          76.5925         -DE/DX =    0.0                 !
 ! D166  D(23,16,22,13)       -155.9684         -DE/DX =    0.0                 !
 ! D167  D(23,16,22,14)        158.9524         -DE/DX =    0.0                 !
 ! D168  D(23,16,22,30)        -43.1852         -DE/DX =    0.0                 !
 ! D169  D(15,16,23,11)         81.7493         -DE/DX =    0.0                 !
 ! D170  D(15,16,23,24)        -39.4699         -DE/DX =    0.0                 !
 ! D171  D(15,16,23,25)       -161.5912         -DE/DX =    0.0                 !
 ! D172  D(17,16,23,11)        -75.8422         -DE/DX =    0.0                 !
 ! D173  D(17,16,23,24)        162.9386         -DE/DX =    0.0                 !
 ! D174  D(17,16,23,25)         40.8173         -DE/DX =    0.0                 !
 ! D175  D(22,16,23,11)          3.5279         -DE/DX =    0.0                 !
 ! D176  D(22,16,23,24)       -117.6913         -DE/DX =    0.0                 !
 ! D177  D(22,16,23,25)        120.1874         -DE/DX =    0.0                 !
 ! D178  D(21,17,22,1)           7.7115         -DE/DX =    0.0                 !
 ! D179  D(21,17,22,3)          61.0888         -DE/DX =    0.0                 !
 ! D180  D(21,17,22,4)         -42.8122         -DE/DX =    0.0                 !
 ! D181  D(21,17,22,5)         -96.5227         -DE/DX =    0.0                 !
 ! D182  D(21,17,22,6)         164.7237         -DE/DX =    0.0                 !
 ! D183  D(21,17,22,14)       -159.0518         -DE/DX =    0.0                 !
 ! D184  D(21,17,22,15)        155.8307         -DE/DX =    0.0                 !
 ! D185  D(21,17,22,30)         20.7875         -DE/DX =    0.0                 !
 ! D186  D(3,22,30,11)         -62.8116         -DE/DX =    0.0                 !
 ! D187  D(3,22,30,31)        -153.8967         -DE/DX =    0.0                 !
 ! D188  D(3,22,30,32)         113.332          -DE/DX =    0.0                 !
 ! D189  D(4,22,30,11)        -136.2175         -DE/DX =    0.0                 !
 ! D190  D(4,22,30,31)         132.6974         -DE/DX =    0.0                 !
 ! D191  D(4,22,30,32)          39.9261         -DE/DX =    0.0                 !
 ! D192  D(5,22,30,11)        -123.3326         -DE/DX =    0.0                 !
 ! D193  D(5,22,30,31)         145.5823         -DE/DX =    0.0                 !
 ! D194  D(5,22,30,32)          52.8109         -DE/DX =    0.0                 !
 ! D195  D(6,22,30,11)         -74.9195         -DE/DX =    0.0                 !
 ! D196  D(6,22,30,31)        -166.0047         -DE/DX =    0.0                 !
 ! D197  D(6,22,30,32)         101.224          -DE/DX =    0.0                 !
 ! D198  D(13,22,30,11)        120.0897         -DE/DX =    0.0                 !
 ! D199  D(13,22,30,31)         29.0046         -DE/DX =    0.0                 !
 ! D200  D(13,22,30,32)        -63.7667         -DE/DX =    0.0                 !
 ! D201  D(14,22,30,11)         94.1347         -DE/DX =    0.0                 !
 ! D202  D(14,22,30,31)          3.0496         -DE/DX =    0.0                 !
 ! D203  D(14,22,30,32)        -89.7218         -DE/DX =    0.0                 !
 ! D204  D(15,22,30,11)         38.3244         -DE/DX =    0.0                 !
 ! D205  D(15,22,30,31)        -52.7607         -DE/DX =    0.0                 !
 ! D206  D(15,22,30,32)       -145.532          -DE/DX =    0.0                 !
 ! D207  D(16,22,30,11)         51.6125         -DE/DX =    0.0                 !
 ! D208  D(16,22,30,31)        -39.4726         -DE/DX =    0.0                 !
 ! D209  D(16,22,30,32)       -132.244          -DE/DX =    0.0                 !
 ! D210  D(17,22,30,11)         93.8465         -DE/DX =    0.0                 !
 ! D211  D(17,22,30,31)          2.7614         -DE/DX =    0.0                 !
 ! D212  D(17,22,30,32)        -90.0099         -DE/DX =    0.0                 !
 ! D213  D(11,30,31,33)       -156.5319         -DE/DX =    0.0                 !
 ! D214  D(22,30,31,33)        -83.5982         -DE/DX =    0.0                 !
 ! D215  D(32,30,31,33)         28.7987         -DE/DX =    0.0                 !
 ! D216  D(1,30,32,34)         132.3127         -DE/DX =    0.0                 !
 ! D217  D(1,30,32,35)         -57.8086         -DE/DX =    0.0                 !
 ! D218  D(22,30,32,34)         81.895          -DE/DX =    0.0                 !
 ! D219  D(22,30,32,35)       -108.2262         -DE/DX =    0.0                 !
 ! D220  D(31,30,32,34)        -37.8823         -DE/DX =    0.0                 !
 ! D221  D(31,30,32,35)        131.9964         -DE/DX =    0.0                 !
 ! D222  D(30,31,33,34)        -13.3049         -DE/DX =    0.0                 !
 ! D223  D(30,31,33,36)        165.4932         -DE/DX =    0.0                 !
 ! D224  D(30,32,34,33)         40.0163         -DE/DX =    0.0                 !
 ! D225  D(30,32,34,39)        159.7618         -DE/DX =    0.0                 !
 ! D226  D(30,32,34,54)        -78.3333         -DE/DX =    0.0                 !
 ! D227  D(35,32,34,33)       -128.7725         -DE/DX =    0.0                 !
 ! D228  D(35,32,34,39)         -9.0271         -DE/DX =    0.0                 !
 ! D229  D(35,32,34,54)        112.8778         -DE/DX =    0.0                 !
 ! D230  D(30,32,35,37)         17.3131         -DE/DX =    0.0                 !
 ! D231  D(30,32,35,40)       -165.5119         -DE/DX =    0.0                 !
 ! D232  D(34,32,35,37)       -175.0075         -DE/DX =    0.0                 !
 ! D233  D(34,32,35,40)          2.1675         -DE/DX =    0.0                 !
 ! D234  D(31,33,34,32)        -16.1293         -DE/DX =    0.0                 !
 ! D235  D(31,33,34,39)       -138.5975         -DE/DX =    0.0                 !
 ! D236  D(31,33,34,54)         98.9699         -DE/DX =    0.0                 !
 ! D237  D(36,33,34,32)        164.972          -DE/DX =    0.0                 !
 ! D238  D(36,33,34,39)         42.5038         -DE/DX =    0.0                 !
 ! D239  D(36,33,34,54)        -79.9288         -DE/DX =    0.0                 !
 ! D240  D(32,34,54,55)        -82.5137         -DE/DX =    0.0                 !
 ! D241  D(32,34,54,56)         36.5501         -DE/DX =    0.0                 !
 ! D242  D(32,34,54,57)        157.7109         -DE/DX =    0.0                 !
 ! D243  D(33,34,54,55)        161.1819         -DE/DX =    0.0                 !
 ! D244  D(33,34,54,56)        -79.7543         -DE/DX =    0.0                 !
 ! D245  D(33,34,54,57)         41.4065         -DE/DX =    0.0                 !
 ! D246  D(39,34,54,55)         40.3895         -DE/DX =    0.0                 !
 ! D247  D(39,34,54,56)        159.4534         -DE/DX =    0.0                 !
 ! D248  D(39,34,54,57)        -79.3858         -DE/DX =    0.0                 !
 ! D249  D(32,35,37,38)         12.3602         -DE/DX =    0.0                 !
 ! D250  D(40,35,37,38)       -164.7983         -DE/DX =    0.0                 !
 ! D251  D(32,35,40,42)        179.6467         -DE/DX =    0.0                 !
 ! D252  D(37,35,40,42)         -3.2504         -DE/DX =    0.0                 !
 ! D253  D(35,40,42,41)        -60.033          -DE/DX =    0.0                 !
 ! D254  D(35,40,42,43)         63.6614         -DE/DX =    0.0                 !
 ! D255  D(35,40,42,44)       -178.1902         -DE/DX =    0.0                 !
 ! D256  D(45,41,42,40)        -53.1574         -DE/DX =    0.0                 !
 ! D257  D(45,41,42,43)       -176.2825         -DE/DX =    0.0                 !
 ! D258  D(45,41,42,44)         60.653          -DE/DX =    0.0                 !
 ! D259  D(46,41,42,40)       -172.8131         -DE/DX =    0.0                 !
 ! D260  D(46,41,42,43)         64.0618         -DE/DX =    0.0                 !
 ! D261  D(46,41,42,44)        -59.0026         -DE/DX =    0.0                 !
 ! D262  D(47,41,42,40)         67.1548         -DE/DX =    0.0                 !
 ! D263  D(47,41,42,43)        -55.9703         -DE/DX =    0.0                 !
 ! D264  D(47,41,42,44)       -179.0348         -DE/DX =    0.0                 !
 ! D265  D(40,42,43,48)        172.8239         -DE/DX =    0.0                 !
 ! D266  D(40,42,43,49)         53.2425         -DE/DX =    0.0                 !
 ! D267  D(40,42,43,50)        -67.1268         -DE/DX =    0.0                 !
 ! D268  D(41,42,43,48)        -64.0531         -DE/DX =    0.0                 !
 ! D269  D(41,42,43,49)        176.3655         -DE/DX =    0.0                 !
 ! D270  D(41,42,43,50)         55.9962         -DE/DX =    0.0                 !
 ! D271  D(44,42,43,48)         59.0166         -DE/DX =    0.0                 !
 ! D272  D(44,42,43,49)        -60.5648         -DE/DX =    0.0                 !
 ! D273  D(44,42,43,50)        179.0658         -DE/DX =    0.0                 !
 ! D274  D(40,42,44,51)        179.6301         -DE/DX =    0.0                 !
 ! D275  D(40,42,44,52)         59.3007         -DE/DX =    0.0                 !
 ! D276  D(40,42,44,53)        -60.0093         -DE/DX =    0.0                 !
 ! D277  D(41,42,44,51)         61.4574         -DE/DX =    0.0                 !
 ! D278  D(41,42,44,52)        -58.872          -DE/DX =    0.0                 !
 ! D279  D(41,42,44,53)       -178.182          -DE/DX =    0.0                 !
 ! D280  D(43,42,44,51)        -62.1972         -DE/DX =    0.0                 !
 ! D281  D(43,42,44,52)        177.4734         -DE/DX =    0.0                 !
 ! D282  D(43,42,44,53)         58.1634         -DE/DX =    0.0                 !
 --------------------------------------------------------------------------------
 Largest change from initial coordinates is atom   28       0.923 Angstoms.
 GradGradGradGradGradGradGradGradGradGradGradGradGradGradGradGradGradGrad

 Leave Link  103 at Sun Sep 28 17:26:24 2025, MaxMem=   104857600 cpu:               0.1 elap:               0.3
 (Enter /home/echo/g16/l202.exe)
 Stoichiometry    C21H28FeN2O4Pd
 Framework group  C1[X(C21H28FeN2O4Pd)]
 Deg. of freedom   165
 Full point group                 C1      NOp   1
 RotChk:  IX=0 Diff= 2.56D-15
 Largest Abelian subgroup         C1      NOp   1
 Largest concise Abelian subgroup C1      NOp   1
                         Standard orientation:                         
 ---------------------------------------------------------------------
 Center     Atomic      Atomic             Coordinates (Angstroms)
 Number     Number       Type             X           Y           Z
 ---------------------------------------------------------------------
      1          6           0       -0.413553   -1.535863    0.316557
      2          6           0       -2.341613   -1.161751    1.890732
      3          6           0       -1.696590   -1.918877    0.802542
      4          6           0       -0.489632   -1.789077   -1.083876
      5          6           0       -1.691593   -2.443594   -1.396006
      6          6           0       -2.453287   -2.524755   -0.222861
      7          1           0        0.251084   -1.556512   -1.819022
      8          1           0       -2.022453   -2.692590   -2.376972
      9          1           0       -3.469541   -2.837644   -0.162039
     10          1           0       -3.408258   -1.168585    1.672226
     11          7           0       -1.836945    0.230222    1.838116
     12          1           0       -2.175874   -1.569845    2.891704
     13          6           0       -2.461870    0.364104   -2.193711
     14          6           0       -3.514655   -0.500685   -1.855544
     15          6           0       -3.909724   -0.221220   -0.538000
     16          6           0       -3.102307    0.822566   -0.063297
     17          6           0       -2.207204    1.203925   -1.092316
     18          1           0       -1.923737    0.311294   -3.110767
     19          1           0       -3.867354   -1.315126   -2.441515
     20          1           0       -4.636281   -0.772774    0.012251
     21          1           0       -1.557228    2.052761   -1.061098
     22         26           0       -2.044429   -0.702720   -0.635249
     23          6           0       -2.877087    1.147327    1.353903
     24          1           0       -3.791176    1.043686    1.952065
     25          1           0       -2.493449    2.165778    1.446952
     26          6           0       -1.308276    0.670434    3.130217
     27          1           0       -0.895092    1.677392    3.023372
     28          1           0       -2.087595    0.688057    3.904836
     29          1           0       -0.508428   -0.007953    3.446433
     30         46           0       -0.165787    0.398155    0.682833
     31          8           0        0.109226    2.504329    0.655912
     32          7           0        1.515922    0.509021   -0.267911
     33          6           0        0.780586    2.825011   -0.371540
     34          6           0        1.493171    1.642703   -1.140441
     35          6           0        2.503295   -0.229622    0.064804
     36          8           0        0.903209    3.950423   -0.820950
     37          8           0        2.271001   -1.291027    0.813217
     38          1           0        1.170087   -1.425618    0.805811
     39          1           0        2.495472    1.973315   -1.435460
     40          8           0        3.724751    0.037892   -0.382739
     41          6           0        5.081980   -0.757161    1.485488
     42          6           0        4.873496   -0.763637   -0.028285
     43          6           0        4.717319   -2.186953   -0.564329
     44          6           0        6.032667   -0.054083   -0.729383
     45          1           0        5.124259    0.267427    1.848952
     46          1           0        6.016674   -1.255158    1.727321
     47          1           0        4.268160   -1.275618    1.985209
     48          1           0        5.638643   -2.738824   -0.401506
     49          1           0        4.506601   -2.160884   -1.631331
     50          1           0        3.905240   -2.700890   -0.057565
     51          1           0        6.965008   -0.572024   -0.526051
     52          1           0        6.108904    0.970354   -0.375282
     53          1           0        5.862110   -0.034274   -1.802416
     54          6           0        0.664824    1.211694   -2.361981
     55          1           0        1.291794    0.654122   -3.056711
     56          1           0       -0.152192    0.561325   -2.009809
     57          1           0        0.267950    2.083855   -2.874460
 ---------------------------------------------------------------------
 Rotational constants (GHZ):           0.2836865           0.1239688           0.1153851
 Leave Link  202 at Sun Sep 28 17:26:24 2025, MaxMem=   104857600 cpu:               0.0 elap:               0.0
 (Enter /home/echo/g16/l601.exe)
 Leave Link  601 at Sun Sep 28 17:26:24 2025, MaxMem=   104857600 cpu:               0.0 elap:               0.0
 (Enter /home/echo/g16/l9999.exe)
 Unable to Open any file for archive entry.
 1\1\GINC-ECHO\FTS\External='./xtb.sh'\ZDO\C21H28Fe1N2O4Pd1\ECHO\28-Sep
 -2025\0\\#p opt(ts,calcfc,noeigen,nomicro) external='./xtb.sh'\\Genera
 te automatically by rxnb\\0,1\C,0.459468025,-1.5633973902,-0.044404180
 9\C,2.3376233346,-1.5111653033,-1.7192786512\C,1.7393772165,-2.0199156
 001,-0.4715904517\C,0.5767768093,-1.4975979062,1.3744083203\C,1.802429
 6269,-2.0430155138,1.7877138568\C,2.5365420282,-2.3680541595,0.6394704
 635\H,-0.1511230466,-1.1218817783,2.0615661099\H,2.1638196756,-2.06137
 50212,2.7891237777\H,3.5586196908,-2.6669101223,0.6191251915\H,3.40919
 91,-1.4486346977,-1.5366862917\N,1.7990801513,-0.1523290913,-1.9613199
 3\H,2.1575118687,-2.1345933144,-2.5995347656\C,2.5204366389,0.88610867
 53,1.9200937212\C,3.5862036613,-0.0116612184,1.7506149419\C,3.94113620
 24,-0.0243367081,0.392688467\C,3.0958058003,0.8720580831,-0.2771236251
 \C,2.2171284576,1.455126913,0.6681164516\H,2.0067932469,1.0279764629,2
 .8417283871\H,3.9740213916,-0.6685654122,2.4916602722\H,4.6676189377,-
 0.6701983415,-0.0431542205\H,1.545137433,2.2630675018,0.4690502853\Fe,
 2.0917234384,-0.5081978412,0.6499400753\C,2.8272091945,0.8693909613,-1
 .7236706134\H,3.7284894034,0.6531437558,-2.3110620494\H,2.4155245938,1
 .8340894472,-2.0285488795\C,1.227393491,-0.0205294631,-3.3024408374\H,
 0.7914444612,0.9768085359,-3.4090557442\H,1.9865087074,-0.1603829624,-
 4.0846613005\H,0.4374931624,-0.7675672047,-3.436424276\Pd,0.1534229594
 ,0.2357269081,-0.8225169392\O,-0.1744668612,2.2895083869,-1.2547153431
 \N,-1.506408071,0.5225032937,0.1298855113\C,-0.8280339771,2.8174118619
 ,-0.3042484384\C,-1.4908936131,1.8219371668,0.7284601996\C,-2.48258717
 64,-0.2905683689,-0.0012202463\O,-0.9681108779,4.0119575748,-0.1119042
 079\O,-2.2419755665,-1.4870326173,-0.5024607249\H,-1.1381435737,-1.595
 2831413,-0.498342478\H,-2.4936569137,2.1903753436,0.9727301669\O,-3.69
 89637419,0.0460104935,0.4122473153\C,-5.0815028792,-1.1703836682,-1.19
 19418868\C,-4.8353482825,-0.8363160751,0.2787115408\C,-4.6296391932,-2
 .1016538737,1.1118780451\C,-5.9944511582,-0.0112885027,0.8395108565\H,
 -5.1589243748,-0.2531805664,-1.7719575711\H,-6.0089135049,-1.727658155
 3,-1.2893620034\H,-4.267399394,-1.7710664645,-1.5884760993\H,-5.540351
 1248,-2.6936308754,1.1030058957\H,-4.3931916022,-1.8350851519,2.139792
 5591\H,-3.8175668412,-2.6995282932,0.7075302552\H,-6.9180450241,-0.579
 4039787,0.7839665134\H,-6.1055726264,0.907190484,0.2696701049\H,-5.797
 8280344,0.2497397745,1.8758916886\C,-0.6217084301,1.6892302623,1.98980
 51292\H,-1.216785352,1.2879319442,2.8092383102\H,0.2026218688,0.992804
 8418,1.7662178932\H,-0.2345893357,2.6609701104,2.2841994494\\Version=E
 S64L-G16RevC.01\HF=-89.2257581\RMSD=0.000e+00\RMSF=7.852e-07\Dipole=0.
 ,0.,0.\PG=C01 [X(C21H28Fe1N2O4Pd1)]\\@
 The archive entry for this job was punched.


 "THE TIME HAS COME", THE WALRUS SAID,
 "TO TALK OF MANY THINGS,
 OF SHOES AND SHIPS AND SEALING WAX,
 OF CABBAGES AND KINGS,
 AND WHY THE SEA IS BOILING HOT,
 AND WHETHER PIGS HAVE WINGS."
 Job cpu time:       0 days  0 hours  0 minutes 10.6 seconds.
 Elapsed time:       0 days  0 hours  0 minutes 43.4 seconds.
 File lengths (MBytes):  RWF=     18 Int=      0 D2E=      0 Chk=      7 Scr=      1
 Normal termination of Gaussian 16 at Sun Sep 28 17:26:25 2025.
