 Entering Gaussian System, Link 0=g16
 Input=4-tsfreq.gjf
 Output=4-tsfreq.log
 Initial command:
 /home/echo/g16/l1.exe "/home/echo/scratch/Gau-17651.inp" -scrdir="/home/echo/scratch/"
 Entering Link 1 = /home/echo/g16/l1.exe PID=     17653.
  
 Copyright (c) 1988-2019, Gaussian, Inc.  All Rights Reserved.
  
 This is part of the Gaussian(R) 16 program.  It is based on
 the Gaussian(R) 09 system (copyright 2009, Gaussian, Inc.),
 the Gaussian(R) 03 system (copyright 2003, Gaussian, Inc.),
 the Gaussian(R) 98 system (copyright 1998, Gaussian, Inc.),
 the Gaussian(R) 94 system (copyright 1995, Gaussian, Inc.),
 the Gaussian 92(TM) system (copyright 1992, Gaussian, Inc.),
 the Gaussian 90(TM) system (copyright 1990, Gaussian, Inc.),
 the Gaussian 88(TM) system (copyright 1988, Gaussian, Inc.),
 the Gaussian 86(TM) system (copyright 1986, Carnegie Mellon
 University), and the Gaussian 82(TM) system (copyright 1983,
 Carnegie Mellon University). Gaussian is a federally registered
 trademark of Gaussian, Inc.
  
 This software contains proprietary and confidential information,
 including trade secrets, belonging to Gaussian, Inc.
  
 This software is provided under written license and may be
 used, copied, transmitted, or stored only in accord with that
 written license.
  
 The following legend is applicable only to US Government
 contracts under FAR:
  
                    RESTRICTED RIGHTS LEGEND
  
 Use, reproduction and disclosure by the US Government is
 subject to restrictions as set forth in subparagraphs (a)
 and (c) of the Commercial Computer Software - Restricted
 Rights clause in FAR 52.227-19.
  
 Gaussian, Inc.
 340 Quinnipiac St., Bldg. 40, Wallingford CT 06492
  
  
 ---------------------------------------------------------------
 Warning -- This program may not be used in any manner that
 competes with the business of Gaussian, Inc. or will provide
 assistance to any competitor of Gaussian, Inc.  The licensee
 of this program is prohibited from giving any competitor of
 Gaussian, Inc. access to this program.  By using this program,
 the user acknowledges that Gaussian, Inc. is engaged in the
 business of creating and licensing software in the field of
 computational chemistry and represents and warrants to the
 licensee that it is not a competitor of Gaussian, Inc. and that
 it will not use this program in any manner prohibited above.
 ---------------------------------------------------------------
  

 Cite this work as:
 Gaussian 16, Revision C.01,
 M. J. Frisch, G. W. Trucks, H. B. Schlegel, G. E. Scuseria, 
 M. A. Robb, J. R. Cheeseman, G. Scalmani, V. Barone, 
 G. A. Petersson, H. Nakatsuji, X. Li, M. Caricato, A. V. Marenich, 
 J. Bloino, B. G. Janesko, R. Gomperts, B. Mennucci, H. P. Hratchian, 
 J. V. Ortiz, A. F. Izmaylov, J. L. Sonnenberg, D. Williams-Young, 
 F. Ding, F. Lipparini, F. Egidi, J. Goings, B. Peng, A. Petrone, 
 T. Henderson, D. Ranasinghe, V. G. Zakrzewski, J. Gao, N. Rega, 
 G. Zheng, W. Liang, M. Hada, M. Ehara, K. Toyota, R. Fukuda, 
 J. Hasegawa, M. Ishida, T. Nakajima, Y. Honda, O. Kitao, H. Nakai, 
 T. Vreven, K. Throssell, J. A. Montgomery, Jr., J. E. Peralta, 
 F. Ogliaro, M. J. Bearpark, J. J. Heyd, E. N. Brothers, K. N. Kudin, 
 V. N. Staroverov, T. A. Keith, R. Kobayashi, J. Normand, 
 K. Raghavachari, A. P. Rendell, J. C. Burant, S. S. Iyengar, 
 J. Tomasi, M. Cossi, J. M. Millam, M. Klene, C. Adamo, R. Cammi, 
 J. W. Ochterski, R. L. Martin, K. Morokuma, O. Farkas, 
 J. B. Foresman, and D. J. Fox, Gaussian, Inc., Wallingford CT, 2019.
 
 ******************************************
 Gaussian 16:  ES64L-G16RevC.01  3-Jul-2019
                28-Sep-2025 
 ******************************************
 %chk=4-tsfreq.chk
 ---------------------------
 #p freq external='./xtb.sh'
 ---------------------------
 1/10=4,18=10,30=1,38=1/1,3;
 2/12=2,17=6,18=5,40=1/2;
 3/11=9,25=1,30=1,41=9900000,43=2,71=2,140=1/1;
 4/20=17,22=2,24=3,113=1,114=1/2;
 6/7=2,8=2,9=2,10=2/1;
 7/8=1,25=1,44=-1/16;
 1/10=4,18=10,30=1/3;
 99//99;
 Leave Link    1 at Sun Sep 28 17:26:25 2025, MaxMem=           0 cpu:               0.0 elap:               0.0
 (Enter /home/echo/g16/l101.exe)
 ------------------------------
 Generate automatically by rxnb
 ------------------------------
 Symbolic Z-matrix:
 Charge =  0 Multiplicity = 1
 C                    -0.41355  -1.53586   0.31656 
 C                    -2.34161  -1.16175   1.89073 
 C                    -1.69659  -1.91888   0.80254 
 C                    -0.48963  -1.78908  -1.08388 
 C                    -1.69159  -2.44359  -1.39601 
 C                    -2.45329  -2.52475  -0.22286 
 H                     0.25108  -1.55651  -1.81902 
 H                    -2.02245  -2.69259  -2.37697 
 H                    -3.46954  -2.83764  -0.16204 
 H                    -3.40826  -1.16858   1.67223 
 N                    -1.83695   0.23022   1.83812 
 H                    -2.17587  -1.56984   2.8917 
 C                    -2.46187   0.3641   -2.19371 
 C                    -3.51465  -0.50069  -1.85554 
 C                    -3.90972  -0.22122  -0.538 
 C                    -3.10231   0.82257  -0.0633 
 C                    -2.2072    1.20392  -1.09232 
 H                    -1.92374   0.31129  -3.11077 
 H                    -3.86735  -1.31513  -2.44151 
 H                    -4.63628  -0.77277   0.01225 
 H                    -1.55723   2.05276  -1.0611 
 Fe                   -2.04443  -0.70272  -0.63525 
 C                    -2.87709   1.14733   1.3539 
 H                    -3.79118   1.04369   1.95206 
 H                    -2.49345   2.16578   1.44695 
 C                    -1.30828   0.67043   3.13022 
 H                    -0.89509   1.67739   3.02337 
 H                    -2.08759   0.68806   3.90484 
 H                    -0.50843  -0.00795   3.44643 
 Pd                   -0.16579   0.39815   0.68283 
 O                     0.10923   2.50433   0.65591 
 N                     1.51592   0.50902  -0.26791 
 C                     0.78059   2.82501  -0.37154 
 C                     1.49317   1.6427   -1.14044 
 C                     2.5033   -0.22962   0.0648 
 O                     0.90321   3.95042  -0.82095 
 O                     2.271    -1.29103   0.81322 
 H                     1.17009  -1.42562   0.80581 
 H                     2.49547   1.97331  -1.43546 
 O                     3.72475   0.03789  -0.38274 
 C                     5.08198  -0.75716   1.48549 
 C                     4.8735   -0.76364  -0.02829 
 C                     4.71732  -2.18695  -0.56433 
 C                     6.03267  -0.05408  -0.72938 
 H                     5.12426   0.26743   1.84895 
 H                     6.01667  -1.25516   1.72732 
 H                     4.26816  -1.27562   1.98521 
 H                     5.63864  -2.73882  -0.40151 
 H                     4.5066   -2.16088  -1.63133 
 H                     3.90524  -2.70089  -0.05756 
 H                     6.96501  -0.57202  -0.52605 
 H                     6.1089    0.97035  -0.37528 
 H                     5.86211  -0.03427  -1.80242 
 C                     0.66482   1.21169  -2.36198 
 H                     1.29179   0.65412  -3.05671 
 H                    -0.15219   0.56132  -2.00981 
 H                     0.26795   2.08385  -2.87446 
 
 ITRead=  0  0  0  0  0  0  0  0  0  0  0  0  0  0  0  0  0  0  0  0
 ITRead=  0  0  0  0  0  0  0  0  0  0  0  0  0  0  0  0  0  0  0  0
 ITRead=  0  0  0  0  0  0  0  0  0  0  0  0  0  0  0  0  0
 MicOpt= -1 -1 -1 -1 -1 -1 -1 -1 -1 -1 -1 -1 -1 -1 -1 -1 -1 -1 -1 -1
 MicOpt= -1 -1 -1 -1 -1 -1 -1 -1 -1 -1 -1 -1 -1 -1 -1 -1 -1 -1 -1 -1
 MicOpt= -1 -1 -1 -1 -1 -1 -1 -1 -1 -1 -1 -1 -1 -1 -1 -1 -1
 NAtoms=     57 NQM=       57 NQMF=       0 NMMI=      0 NMMIF=      0
                NMic=       0 NMicF=      0.
                    Isotopes and Nuclear Properties:
 (Nuclear quadrupole moments (NQMom) in fm**2, nuclear magnetic moments (NMagM)
  in nuclear magnetons)

  Atom         1           2           3           4           5           6           7           8           9          10
 IAtWgt=          12          12          12          12          12          12           1           1           1           1
 AtmWgt=  12.0000000  12.0000000  12.0000000  12.0000000  12.0000000  12.0000000   1.0078250   1.0078250   1.0078250   1.0078250
 NucSpn=           0           0           0           0           0           0           1           1           1           1
 AtZEff=  -0.0000000  -0.0000000  -0.0000000  -0.0000000  -0.0000000  -0.0000000  -0.0000000  -0.0000000  -0.0000000  -0.0000000
 NQMom=    0.0000000   0.0000000   0.0000000   0.0000000   0.0000000   0.0000000   0.0000000   0.0000000   0.0000000   0.0000000
 NMagM=    0.0000000   0.0000000   0.0000000   0.0000000   0.0000000   0.0000000   2.7928460   2.7928460   2.7928460   2.7928460
 AtZNuc=   6.0000000   6.0000000   6.0000000   6.0000000   6.0000000   6.0000000   1.0000000   1.0000000   1.0000000   1.0000000

  Atom        11          12          13          14          15          16          17          18          19          20
 IAtWgt=          14           1          12          12          12          12          12           1           1           1
 AtmWgt=  14.0030740   1.0078250  12.0000000  12.0000000  12.0000000  12.0000000  12.0000000   1.0078250   1.0078250   1.0078250
 NucSpn=           2           1           0           0           0           0           0           1           1           1
 AtZEff=  -0.0000000  -0.0000000  -0.0000000  -0.0000000  -0.0000000  -0.0000000  -0.0000000  -0.0000000  -0.0000000  -0.0000000
 NQMom=    2.0440000   0.0000000   0.0000000   0.0000000   0.0000000   0.0000000   0.0000000   0.0000000   0.0000000   0.0000000
 NMagM=    0.4037610   2.7928460   0.0000000   0.0000000   0.0000000   0.0000000   0.0000000   2.7928460   2.7928460   2.7928460
 AtZNuc=   7.0000000   1.0000000   6.0000000   6.0000000   6.0000000   6.0000000   6.0000000   1.0000000   1.0000000   1.0000000

  Atom        21          22          23          24          25          26          27          28          29          30
 IAtWgt=           1          56          12           1           1          12           1           1           1         106
 AtmWgt=   1.0078250  55.9349393  12.0000000   1.0078250   1.0078250  12.0000000   1.0078250   1.0078250   1.0078250 105.9032000
 NucSpn=           1           0           0           1           1           0           1           1           1           0
 AtZEff=  -0.0000000  -0.0000000  -0.0000000  -0.0000000  -0.0000000  -0.0000000  -0.0000000  -0.0000000  -0.0000000  -0.0000000
 NQMom=    0.0000000   0.0000000   0.0000000   0.0000000   0.0000000   0.0000000   0.0000000   0.0000000   0.0000000   0.0000000
 NMagM=    2.7928460   0.0000000   0.0000000   2.7928460   2.7928460   0.0000000   2.7928460   2.7928460   2.7928460   0.0000000
 AtZNuc=   1.0000000  26.0000000   6.0000000   1.0000000   1.0000000   6.0000000   1.0000000   1.0000000   1.0000000  46.0000000

  Atom        31          32          33          34          35          36          37          38          39          40
 IAtWgt=          16          14          12          12          12          16          16           1           1          16
 AtmWgt=  15.9949146  14.0030740  12.0000000  12.0000000  12.0000000  15.9949146  15.9949146   1.0078250   1.0078250  15.9949146
 NucSpn=           0           2           0           0           0           0           0           1           1           0
 AtZEff=  -0.0000000  -0.0000000  -0.0000000  -0.0000000  -0.0000000  -0.0000000  -0.0000000  -0.0000000  -0.0000000  -0.0000000
 NQMom=    0.0000000   2.0440000   0.0000000   0.0000000   0.0000000   0.0000000   0.0000000   0.0000000   0.0000000   0.0000000
 NMagM=    0.0000000   0.4037610   0.0000000   0.0000000   0.0000000   0.0000000   0.0000000   2.7928460   2.7928460   0.0000000
 AtZNuc=   8.0000000   7.0000000   6.0000000   6.0000000   6.0000000   8.0000000   8.0000000   1.0000000   1.0000000   8.0000000

  Atom        41          42          43          44          45          46          47          48          49          50
 IAtWgt=          12          12          12          12           1           1           1           1           1           1
 AtmWgt=  12.0000000  12.0000000  12.0000000  12.0000000   1.0078250   1.0078250   1.0078250   1.0078250   1.0078250   1.0078250
 NucSpn=           0           0           0           0           1           1           1           1           1           1
 AtZEff=  -0.0000000  -0.0000000  -0.0000000  -0.0000000  -0.0000000  -0.0000000  -0.0000000  -0.0000000  -0.0000000  -0.0000000
 NQMom=    0.0000000   0.0000000   0.0000000   0.0000000   0.0000000   0.0000000   0.0000000   0.0000000   0.0000000   0.0000000
 NMagM=    0.0000000   0.0000000   0.0000000   0.0000000   2.7928460   2.7928460   2.7928460   2.7928460   2.7928460   2.7928460
 AtZNuc=   6.0000000   6.0000000   6.0000000   6.0000000   1.0000000   1.0000000   1.0000000   1.0000000   1.0000000   1.0000000

  Atom        51          52          53          54          55          56          57
 IAtWgt=           1           1           1          12           1           1           1
 AtmWgt=   1.0078250   1.0078250   1.0078250  12.0000000   1.0078250   1.0078250   1.0078250
 NucSpn=           1           1           1           0           1           1           1
 AtZEff=  -0.0000000  -0.0000000  -0.0000000  -0.0000000  -0.0000000  -0.0000000  -0.0000000
 NQMom=    0.0000000   0.0000000   0.0000000   0.0000000   0.0000000   0.0000000   0.0000000
 NMagM=    2.7928460   2.7928460   2.7928460   0.0000000   2.7928460   2.7928460   2.7928460
 AtZNuc=   1.0000000   1.0000000   1.0000000   6.0000000   1.0000000   1.0000000   1.0000000
 Leave Link  101 at Sun Sep 28 17:26:25 2025, MaxMem=   104857600 cpu:               0.2 elap:               0.2
 (Enter /home/echo/g16/l103.exe)

 GradGradGradGradGradGradGradGradGradGradGradGradGradGradGradGradGradGrad
 Berny optimization.
 Initialization pass.
 Trust Radius=3.00D-01 FncErr=1.00D-07 GrdErr=1.00D-07 EigMax=2.50D+02 EigMin=1.00D-04
 Number of steps in this run=      2 maximum allowed number of steps=      2.
 GradGradGradGradGradGradGradGradGradGradGradGradGradGradGradGradGradGrad

 Leave Link  103 at Sun Sep 28 17:26:25 2025, MaxMem=   104857600 cpu:               0.0 elap:               0.0
 (Enter /home/echo/g16/l202.exe)
 Stoichiometry    C21H28FeN2O4Pd
 Framework group  C1[X(C21H28FeN2O4Pd)]
 Deg. of freedom   165
 Full point group                 C1      NOp   1
 Largest Abelian subgroup         C1      NOp   1
 Largest concise Abelian subgroup C1      NOp   1
                         Standard orientation:                         
 ---------------------------------------------------------------------
 Center     Atomic      Atomic             Coordinates (Angstroms)
 Number     Number       Type             X           Y           Z
 ---------------------------------------------------------------------
      1          6           0       -0.413550   -1.535859    0.316561
      2          6           0       -2.341610   -1.161749    1.890731
      3          6           0       -1.696590   -1.918879    0.802541
      4          6           0       -0.489630   -1.789079   -1.083879
      5          6           0       -1.691590   -2.443589   -1.396009
      6          6           0       -2.453290   -2.524749   -0.222859
      7          1           0        0.251080   -1.556509   -1.819019
      8          1           0       -2.022450   -2.692589   -2.376969
      9          1           0       -3.469540   -2.837639   -0.162039
     10          1           0       -3.408260   -1.168579    1.672231
     11          7           0       -1.836950    0.230221    1.838121
     12          1           0       -2.175870   -1.569839    2.891701
     13          6           0       -2.461870    0.364101   -2.193709
     14          6           0       -3.514650   -0.500689   -1.855539
     15          6           0       -3.909720   -0.221219   -0.537999
     16          6           0       -3.102310    0.822571   -0.063299
     17          6           0       -2.207200    1.203921   -1.092319
     18          1           0       -1.923740    0.311291   -3.110769
     19          1           0       -3.867350   -1.315129   -2.441509
     20          1           0       -4.636280   -0.772769    0.012251
     21          1           0       -1.557230    2.052761   -1.061099
     22         26           0       -2.044430   -0.702719   -0.635249
     23          6           0       -2.877090    1.147331    1.353901
     24          1           0       -3.791180    1.043691    1.952061
     25          1           0       -2.493450    2.165781    1.446951
     26          6           0       -1.308280    0.670431    3.130221
     27          1           0       -0.895090    1.677391    3.023371
     28          1           0       -2.087590    0.688061    3.904841
     29          1           0       -0.508430   -0.007949    3.446431
     30         46           0       -0.165790    0.398151    0.682831
     31          8           0        0.109230    2.504331    0.655911
     32          7           0        1.515920    0.509021   -0.267909
     33          6           0        0.780590    2.825011   -0.371539
     34          6           0        1.493170    1.642701   -1.140439
     35          6           0        2.503300   -0.229619    0.064801
     36          8           0        0.903210    3.950421   -0.820949
     37          8           0        2.271000   -1.291029    0.813221
     38          1           0        1.170090   -1.425619    0.805811
     39          1           0        2.495470    1.973311   -1.435459
     40          8           0        3.724750    0.037891   -0.382739
     41          6           0        5.081980   -0.757159    1.485491
     42          6           0        4.873500   -0.763639   -0.028289
     43          6           0        4.717320   -2.186949   -0.564329
     44          6           0        6.032670   -0.054079   -0.729379
     45          1           0        5.124260    0.267431    1.848951
     46          1           0        6.016670   -1.255159    1.727321
     47          1           0        4.268160   -1.275619    1.985211
     48          1           0        5.638640   -2.738819   -0.401509
     49          1           0        4.506600   -2.160879   -1.631329
     50          1           0        3.905240   -2.700889   -0.057559
     51          1           0        6.965010   -0.572019   -0.526049
     52          1           0        6.108900    0.970351   -0.375279
     53          1           0        5.862110   -0.034269   -1.802419
     54          6           0        0.664820    1.211691   -2.361979
     55          1           0        1.291790    0.654121   -3.056709
     56          1           0       -0.152190    0.561321   -2.009809
     57          1           0        0.267950    2.083851   -2.874459
 ---------------------------------------------------------------------
 Rotational constants (GHZ):           0.2836868           0.1239688           0.1153851
 Leave Link  202 at Sun Sep 28 17:26:25 2025, MaxMem=   104857600 cpu:               0.0 elap:               0.0
 (Enter /home/echo/g16/l301.exe)
 Standard basis: STO-3G (5D, 7F)
 Ernie: Thresh=  0.10000D-02 Tol=  0.10000D-05 Strict=F.
 There are   211 symmetry adapted cartesian basis functions of A   symmetry.
 There are   208 symmetry adapted basis functions of A   symmetry.
   208 basis functions,   633 primitive gaussians,   211 cartesian basis functions
   136 alpha electrons      136 beta electrons
       nuclear repulsion energy      5343.1919773643 Hartrees.
 IExCor=    0 DFT=F Ex=HF Corr=None ExCW=0 ScaHFX=  1.000000
 ScaDFX=  1.000000  1.000000  1.000000  1.000000 ScalE2=  1.000000  1.000000
 IRadAn=      5 IRanWt=     -1 IRanGd=            0 ICorTp=0 IEmpDi=  4
 NAtoms=   57 NActive=   57 NUniq=   57 SFac= 1.00D+00 NAtFMM=   60 NAOKFM=F Big=F
 Integral buffers will be    131072 words long.
 Raffenetti 1 integral format.
 Two-electron integral symmetry is turned on.
 Leave Link  301 at Sun Sep 28 17:26:25 2025, MaxMem=   104857600 cpu:               0.1 elap:               0.1
 (Enter /home/echo/g16/l402.exe)
 External calculation of energy, first and second derivatives.
 Running external command "./xtb.sh R"
         input file       "/home/echo/scratch/Gau-17653.EIn"
         output file      "/home/echo/scratch/Gau-17653.EOu"
         message file     "/home/echo/scratch/Gau-17653.EMs"
         fchk file        "/home/echo/scratch/Gau-17653.EFC"
         mat. el file     "/home/echo/scratch/Gau-17653.EUF"
Generating mol.tmp
Generating mol.xyz via genxyz
Running: xtb mol.xyz --chrg 0 --uhf 0 --gfn2 --hess --grad > xtbout
xtb running finished!
Extracting data from xtb outputs via extderi
 Recovered energy= -89.2257580976     dipole=      0.000000000000      0.000000000000      0.000000000000
 Energy=    -89.2257581     NIter=   0.
 Dipole moment=       0.000000       0.000000       0.000000
 Leave Link  402 at Sun Sep 28 17:26:32 2025, MaxMem=   104857600 cpu:               0.1 elap:               6.7
 (Enter /home/echo/g16/l601.exe)
 Leave Link  601 at Sun Sep 28 17:26:32 2025, MaxMem=   104857600 cpu:               0.0 elap:               0.0
 (Enter /home/echo/g16/l716.exe)
 Dipole        = 0.00000000D+00 0.00000000D+00 0.00000000D+00
 Full mass-weighted force constant matrix:
 Low frequencies --- -623.5753   -0.0177   -0.0150   -0.0068    0.0084    0.0134
 Low frequencies ---    0.0161   16.6809   39.8055
 ******    1 imaginary frequencies (negative Signs) ****** 
 Diagonal vibrational polarizability:
        0.0000000       0.0000000       0.0000000
 Harmonic frequencies (cm**-1), IR intensities (KM/Mole), Raman scattering
 activities (A**4/AMU), depolarization ratios for plane and unpolarized
 incident light, reduced masses (AMU), force constants (mDyne/A),
 and normal coordinates:
                      1                      2                      3
                      A                      A                      A
 Frequencies --   -623.5753                16.6809                39.8055
 Red. masses --      1.3891                 4.5292                 3.2693
 Frc consts  --      0.3182                 0.0007                 0.0031
 IR Inten    --      0.0000                 0.0000                 0.0000
  Atom  AN      X      Y      Z        X      Y      Z        X      Y      Z
     1   6    -0.10   0.06  -0.01    -0.02  -0.03  -0.06     0.01  -0.00  -0.00
     2   6    -0.01   0.00   0.00     0.04  -0.02   0.01    -0.02  -0.02  -0.02
     3   6    -0.04  -0.01  -0.00    -0.01  -0.01  -0.02    -0.00  -0.00  -0.03
     4   6    -0.00   0.00   0.01    -0.07  -0.00  -0.06     0.03   0.02  -0.00
     5   6    -0.00  -0.01  -0.00    -0.09   0.02  -0.03     0.03   0.03  -0.03
     6   6    -0.02  -0.01  -0.01    -0.06   0.02  -0.01     0.01   0.01  -0.05
     7   1    -0.01   0.02   0.00    -0.09  -0.00  -0.08     0.05   0.02   0.01
     8   1     0.00  -0.01  -0.00    -0.13   0.04  -0.02     0.05   0.05  -0.04
     9   1    -0.01  -0.02  -0.02    -0.06   0.03   0.02     0.01   0.01  -0.07
    10   1    -0.01   0.01   0.01     0.03   0.00   0.04    -0.01  -0.01  -0.03
    11   7     0.00  -0.00   0.00     0.06  -0.02   0.01    -0.01  -0.02   0.01
    12   1    -0.01   0.00   0.00     0.06  -0.03  -0.00    -0.02  -0.04  -0.03
    13   6     0.00  -0.00   0.00    -0.07   0.05   0.04     0.02   0.04  -0.01
    14   6    -0.01   0.01  -0.00    -0.08   0.06   0.06     0.03   0.03  -0.02
    15   6    -0.00   0.00  -0.00    -0.03   0.05   0.07     0.02   0.01  -0.02
    16   6     0.00   0.00  -0.00     0.00   0.02   0.06     0.01   0.01  -0.00
    17   6    -0.00   0.01   0.00    -0.02   0.03   0.04     0.02   0.02   0.01
    18   1    -0.00  -0.01  -0.00    -0.10   0.05   0.02     0.02   0.06  -0.01
    19   1     0.00  -0.00   0.00    -0.11   0.07   0.06     0.03   0.04  -0.04
    20   1     0.00  -0.00   0.00    -0.02   0.05   0.09     0.02   0.00  -0.03
    21   1    -0.01   0.02  -0.00    -0.01   0.01   0.03     0.01   0.03   0.02
    22  26    -0.01  -0.01  -0.01    -0.04   0.02   0.01     0.02   0.02  -0.02
    23   6     0.00   0.00  -0.00     0.05  -0.00   0.06    -0.00  -0.01   0.00
    24   1     0.01  -0.00   0.00     0.07   0.00   0.09    -0.01  -0.01  -0.01
    25   1     0.00   0.00   0.00     0.07  -0.01   0.07     0.00  -0.01   0.02
    26   6    -0.01   0.00   0.00     0.11  -0.05   0.00    -0.03  -0.04   0.02
    27   1    -0.00  -0.00   0.00     0.12  -0.06   0.00    -0.03  -0.04   0.04
    28   1    -0.01   0.01  -0.00     0.14  -0.05   0.03    -0.04  -0.05   0.01
    29   1    -0.01  -0.00   0.02     0.11  -0.07  -0.04    -0.04  -0.05   0.02
    30  46     0.00  -0.00   0.00     0.02  -0.04  -0.04     0.00  -0.00   0.03
    31   8     0.00   0.01  -0.00     0.06  -0.04  -0.02    -0.00  -0.00   0.04
    32   7     0.01  -0.01   0.00    -0.01  -0.05  -0.09    -0.00   0.01   0.03
    33   6    -0.01   0.01   0.01     0.04  -0.03  -0.03    -0.03  -0.01   0.01
    34   6    -0.00  -0.01   0.00    -0.01  -0.04  -0.07    -0.02  -0.00   0.02
    35   6     0.02   0.06  -0.05    -0.00  -0.02  -0.05    -0.01  -0.02  -0.02
    36   8     0.01  -0.00  -0.01     0.06  -0.03  -0.01    -0.07  -0.01  -0.01
    37   8     0.07  -0.03   0.03    -0.01  -0.02  -0.05    -0.00   0.00   0.02
    38   1     0.95   0.03   0.26    -0.01  -0.03  -0.07    -0.00   0.00   0.03
    39   1    -0.00  -0.00   0.01    -0.01  -0.05  -0.10    -0.02   0.01   0.02
    40   8     0.01   0.00  -0.01     0.01  -0.01  -0.02    -0.03  -0.07  -0.10
    41   6     0.00   0.00   0.00    -0.08   0.15   0.11     0.03   0.22  -0.03
    42   6     0.01  -0.01   0.00     0.02   0.07   0.10    -0.01  -0.01  -0.03
    43   6     0.00  -0.00  -0.00     0.13   0.03   0.16     0.01  -0.09   0.19
    44   6     0.00  -0.00   0.00     0.03   0.09   0.14    -0.04  -0.10  -0.17
    45   1    -0.00   0.00  -0.00    -0.17   0.17   0.06     0.04   0.28  -0.19
    46   1     0.01   0.01  -0.00    -0.07   0.22   0.20     0.03   0.25   0.03
    47   1     0.02  -0.01   0.02    -0.08   0.13   0.08     0.03   0.30   0.06
    48   1     0.01   0.00  -0.01     0.15   0.08   0.26     0.03  -0.04   0.23
    49   1    -0.00   0.00   0.00     0.21  -0.03   0.14    -0.04  -0.26   0.20
    50   1     0.02  -0.02  -0.00     0.12   0.02   0.13     0.04  -0.04   0.30
    51   1     0.01   0.00  -0.00     0.05   0.15   0.23    -0.02  -0.04  -0.10
    52   1    -0.00  -0.00   0.00    -0.04   0.11   0.10    -0.05  -0.04  -0.33
    53   1     0.00  -0.00   0.00     0.10   0.03   0.13    -0.06  -0.27  -0.16
    54   6    -0.00  -0.00   0.01    -0.06   0.00  -0.05    -0.01  -0.02   0.02
    55   1    -0.00  -0.01   0.00    -0.09   0.00  -0.09    -0.00  -0.02   0.03
    56   1    -0.01   0.00   0.01    -0.06   0.01  -0.04    -0.01  -0.02   0.02
    57   1     0.00   0.00   0.01    -0.06   0.02  -0.02    -0.01  -0.02   0.01
                      4                      5                      6
                      A                      A                      A
 Frequencies --     47.7110                59.3223                76.1323
 Red. masses --      9.0054                 4.4833                 5.3056
 Frc consts  --      0.0121                 0.0093                 0.0181
 IR Inten    --      0.0000                 0.0000                 0.0000
  Atom  AN      X      Y      Z        X      Y      Z        X      Y      Z
     1   6    -0.00   0.02   0.01    -0.03  -0.01   0.05    -0.00  -0.04   0.03
     2   6     0.01  -0.00   0.02    -0.06   0.06   0.01    -0.04   0.00  -0.02
     3   6     0.02  -0.02   0.04    -0.05   0.03   0.04    -0.04   0.01  -0.03
     4   6    -0.01  -0.01   0.01    -0.02  -0.04   0.06     0.02  -0.01   0.02
     5   6     0.01  -0.06   0.05    -0.02  -0.03   0.06     0.01   0.04  -0.03
     6   6     0.03  -0.06   0.06    -0.04   0.02   0.05    -0.03   0.04  -0.05
     7   1    -0.05   0.03  -0.01    -0.01  -0.06   0.06     0.07  -0.06   0.05
     8   1    -0.00  -0.10   0.06    -0.01  -0.05   0.06     0.04   0.07  -0.05
     9   1     0.04  -0.09   0.09    -0.05   0.04   0.04    -0.03   0.06  -0.09
    10   1     0.01  -0.04   0.02    -0.05   0.08  -0.02    -0.04   0.02  -0.03
    11   7    -0.04   0.01  -0.02    -0.03   0.05  -0.01    -0.03  -0.00   0.00
    12   1     0.02   0.04   0.03    -0.09   0.08   0.02    -0.05  -0.02  -0.03
    13   6    -0.02  -0.09   0.00     0.07  -0.03  -0.03     0.00   0.05  -0.02
    14   6    -0.02  -0.10  -0.00     0.04   0.00  -0.03     0.02   0.03  -0.02
    15   6    -0.04  -0.09  -0.01     0.01   0.04  -0.05     0.01   0.02  -0.02
    16   6    -0.07  -0.07  -0.02     0.02   0.04  -0.06     0.01   0.02  -0.01
    17   6    -0.06  -0.07  -0.00     0.06  -0.01  -0.04    -0.00   0.04  -0.01
    18   1     0.00  -0.10   0.02     0.09  -0.07  -0.01    -0.02   0.08  -0.03
    19   1     0.01  -0.12   0.00     0.03  -0.00  -0.02     0.02   0.04  -0.03
    20   1    -0.04  -0.10  -0.01    -0.01   0.07  -0.06     0.01   0.02  -0.02
    21   1    -0.07  -0.06   0.01     0.07  -0.02  -0.05     0.00   0.04   0.01
    22  26    -0.04  -0.06   0.02     0.00  -0.00   0.01     0.02   0.04  -0.02
    23   6    -0.08  -0.04  -0.02    -0.00   0.06  -0.06    -0.00   0.02  -0.01
    24   1    -0.07  -0.08  -0.01    -0.02   0.09  -0.08    -0.01   0.03  -0.01
    25   1    -0.13  -0.02  -0.03     0.01   0.06  -0.07     0.02   0.01  -0.00
    26   6    -0.03   0.06  -0.04    -0.07   0.08   0.00    -0.04  -0.02   0.01
    27   1    -0.06   0.07  -0.08    -0.05   0.07  -0.01    -0.02  -0.03   0.03
    28   1    -0.01   0.06  -0.03    -0.10   0.11  -0.03    -0.05  -0.02   0.00
    29   1     0.00   0.09  -0.04    -0.10   0.07   0.05    -0.05  -0.04   0.02
    30  46    -0.03   0.03  -0.05    -0.01  -0.01   0.03    -0.02  -0.03   0.03
    31   8    -0.05   0.03  -0.05     0.00  -0.02   0.05     0.02  -0.02  -0.06
    32   7     0.01   0.02  -0.02    -0.01  -0.04   0.04    -0.05  -0.09   0.01
    33   6     0.17   0.07   0.10     0.00  -0.02   0.05     0.08  -0.07  -0.04
    34   6     0.06   0.06   0.02     0.02  -0.02   0.06    -0.05  -0.14  -0.05
    35   6    -0.01  -0.00  -0.04    -0.01  -0.10  -0.07    -0.02  -0.02   0.09
    36   8     0.46   0.12   0.32    -0.01  -0.02   0.04     0.24  -0.07  -0.00
    37   8    -0.01   0.00  -0.03     0.00  -0.15  -0.14     0.00   0.01   0.13
    38   1    -0.00   0.01  -0.01    -0.02  -0.10  -0.06    -0.02  -0.03   0.09
    39   1     0.08   0.00   0.02     0.03  -0.01   0.10    -0.05  -0.20  -0.13
    40   8    -0.01  -0.03  -0.06    -0.04  -0.08  -0.13    -0.04   0.05   0.09
    41   6     0.01   0.11  -0.03    -0.07   0.05  -0.05     0.13   0.04  -0.04
    42   6    -0.01  -0.01  -0.03     0.03   0.04  -0.06     0.02   0.09  -0.03
    43   6    -0.00  -0.05   0.08     0.20   0.03  -0.08     0.01   0.10  -0.06
    44   6    -0.02  -0.06  -0.10    -0.01   0.17   0.01    -0.07   0.16  -0.10
    45   1     0.03   0.14  -0.11    -0.25   0.05  -0.03     0.18   0.03  -0.02
    46   1     0.01   0.12   0.00    -0.00   0.19  -0.00     0.14   0.02  -0.13
    47   1     0.01   0.16   0.02    -0.02  -0.08  -0.11     0.16   0.04   0.00
    48   1     0.01  -0.02   0.10     0.23   0.10   0.03     0.04   0.12  -0.16
    49   1    -0.04  -0.13   0.09     0.33   0.01  -0.11    -0.08   0.13  -0.04
    50   1     0.02  -0.02   0.14     0.18  -0.03  -0.18     0.07   0.06  -0.00
    51   1    -0.01  -0.03  -0.06     0.03   0.26   0.04    -0.03   0.20  -0.19
    52   1    -0.02  -0.02  -0.19    -0.12   0.17   0.05    -0.10   0.15  -0.09
    53   1    -0.02  -0.15  -0.10     0.04   0.19   0.01    -0.16   0.17  -0.09
    54   6     0.02   0.16   0.02     0.08  -0.01   0.02    -0.13  -0.18   0.02
    55   1    -0.01   0.20  -0.04     0.11   0.01   0.04    -0.18  -0.22   0.01
    56   1     0.02   0.14  -0.01     0.08  -0.03  -0.02    -0.12  -0.16   0.10
    57   1     0.01   0.19   0.08     0.08  -0.01   0.02    -0.15  -0.20   0.00
                      7                      8                      9
                      A                      A                      A
 Frequencies --     87.2888               117.0770               122.5801
 Red. masses --      4.2059                 4.6059                 4.3077
 Frc consts  --      0.0189                 0.0372                 0.0381
 IR Inten    --      0.0000                 0.0000                 0.0000
  Atom  AN      X      Y      Z        X      Y      Z        X      Y      Z
     1   6    -0.04  -0.05  -0.00    -0.01   0.03  -0.02     0.03   0.02  -0.05
     2   6    -0.03   0.05   0.00    -0.01  -0.06   0.00     0.08   0.04   0.02
     3   6    -0.04  -0.00   0.03     0.01  -0.03  -0.01     0.04   0.05  -0.01
     4   6    -0.08  -0.07  -0.00    -0.03   0.06  -0.03    -0.02   0.01  -0.05
     5   6    -0.10  -0.05   0.04    -0.02   0.02  -0.02    -0.03   0.01   0.00
     6   6    -0.08   0.00   0.05     0.00  -0.02  -0.01     0.00   0.03   0.03
     7   1    -0.10  -0.06  -0.02    -0.06   0.11  -0.04    -0.03  -0.03  -0.07
     8   1    -0.13  -0.06   0.05    -0.03   0.03  -0.02    -0.06  -0.01   0.01
     9   1    -0.09   0.04   0.08     0.01  -0.04   0.00     0.01   0.02   0.06
    10   1    -0.02   0.08  -0.02    -0.01  -0.09  -0.00     0.06  -0.02   0.10
    11   7     0.02   0.02  -0.03    -0.06  -0.04   0.02    -0.01   0.07  -0.04
    12   1    -0.06   0.07   0.02    -0.00  -0.07   0.00     0.17   0.07   0.01
    13   6     0.04  -0.05  -0.02    -0.00   0.05   0.06    -0.07   0.03  -0.01
    14   6    -0.01   0.02  -0.00    -0.01   0.04  -0.01    -0.02  -0.03  -0.02
    15   6    -0.01   0.08  -0.01    -0.05  -0.02  -0.01    -0.04  -0.07  -0.02
    16   6     0.05   0.05  -0.04    -0.07  -0.03   0.05    -0.10  -0.03  -0.01
    17   6     0.08  -0.03  -0.05    -0.04   0.01   0.09    -0.12   0.03   0.00
    18   1     0.06  -0.11  -0.01     0.03   0.09   0.08    -0.07   0.08  -0.02
    19   1    -0.06   0.03   0.02     0.01   0.06  -0.05     0.01  -0.03  -0.04
    20   1    -0.04   0.13  -0.00    -0.06  -0.05  -0.04    -0.00  -0.11  -0.02
    21   1     0.11  -0.05  -0.07    -0.04   0.01   0.13    -0.15   0.06   0.02
    22  26    -0.03  -0.02   0.01    -0.05  -0.00   0.03    -0.01   0.03  -0.02
    23   6     0.07   0.06  -0.04    -0.11  -0.08   0.07    -0.10  -0.02  -0.02
    24   1     0.06   0.12  -0.04    -0.11  -0.17   0.06    -0.08  -0.10   0.00
    25   1     0.11   0.05  -0.06    -0.18  -0.06   0.13    -0.19   0.01  -0.02
    26   6     0.05   0.03  -0.04    -0.03  -0.06   0.01    -0.01   0.17  -0.08
    27   1     0.09   0.01  -0.06    -0.06  -0.05   0.03    -0.08   0.19  -0.14
    28   1     0.06   0.08  -0.03     0.00  -0.11   0.04     0.01   0.15  -0.06
    29   1     0.02   0.00  -0.03     0.01  -0.05  -0.04     0.05   0.24  -0.06
    30  46     0.00  -0.05  -0.03    -0.03   0.03  -0.02     0.01   0.01  -0.02
    31   8     0.03  -0.06   0.08     0.01   0.06  -0.08    -0.00  -0.04   0.09
    32   7    -0.01  -0.02  -0.02     0.04  -0.00   0.07     0.06  -0.03   0.04
    33   6    -0.01  -0.02   0.06     0.05   0.01  -0.07    -0.04  -0.04   0.07
    34   6     0.04   0.03   0.04     0.14  -0.01   0.06    -0.05  -0.03   0.04
    35   6     0.00   0.02   0.05     0.02  -0.06   0.05     0.06  -0.04   0.01
    36   8    -0.09  -0.01   0.07     0.01  -0.02  -0.18    -0.08  -0.04   0.06
    37   8    -0.01   0.01   0.03    -0.01  -0.09  -0.01     0.04  -0.08  -0.05
    38   1    -0.04  -0.01  -0.02    -0.03  -0.06  -0.03     0.01  -0.07  -0.08
    39   1     0.06   0.05   0.13     0.17  -0.03   0.15    -0.09   0.00  -0.06
    40   8     0.01   0.09   0.13     0.02  -0.04   0.07     0.08  -0.01   0.06
    41   6     0.16   0.06  -0.01     0.13  -0.00  -0.01     0.14  -0.03   0.01
    42   6     0.02   0.06   0.01     0.06  -0.00   0.00     0.09  -0.02   0.02
    43   6    -0.07   0.06   0.04     0.10  -0.01   0.01     0.09  -0.02   0.03
    44   6    -0.03   0.02  -0.11    -0.01   0.06  -0.06     0.07  -0.02  -0.01
    45   1     0.35   0.06  -0.03     0.19  -0.01  -0.01     0.27  -0.03   0.01
    46   1     0.10  -0.08  -0.07     0.12  -0.05  -0.05     0.08  -0.14  -0.01
    47   1     0.11   0.20   0.07     0.13   0.03   0.02     0.09   0.07   0.04
    48   1    -0.03   0.07  -0.14     0.14   0.04  -0.05     0.12   0.01  -0.06
    49   1    -0.27   0.06   0.07     0.02  -0.02   0.02    -0.01  -0.03   0.05
    50   1     0.03   0.05   0.18     0.16  -0.05   0.06     0.15  -0.05   0.10
    51   1    -0.01   0.04  -0.15     0.04   0.12  -0.08     0.09   0.02   0.02
    52   1    -0.01   0.04  -0.18    -0.06   0.07  -0.08     0.04  -0.00  -0.07
    53   1    -0.11  -0.04  -0.10    -0.05   0.02  -0.05     0.08  -0.09  -0.02
    54   6     0.13   0.09  -0.04     0.23   0.02  -0.01    -0.15  -0.07   0.13
    55   1     0.19   0.15  -0.04     0.23  -0.12   0.10    -0.21  -0.10   0.09
    56   1     0.13   0.04  -0.13     0.10   0.16  -0.05    -0.14  -0.06   0.20
    57   1     0.13   0.11  -0.00     0.41   0.05  -0.10    -0.18  -0.09   0.13
                     10                     11                     12
                      A                      A                      A
 Frequencies --    137.8383               145.8132               158.1296
 Red. masses --      5.4730                 1.6284                 4.3232
 Frc consts  --      0.0613                 0.0204                 0.0637
 IR Inten    --      0.0000                 0.0000                 0.0000
  Atom  AN      X      Y      Z        X      Y      Z        X      Y      Z
     1   6    -0.01   0.03  -0.02     0.00  -0.00  -0.01     0.01   0.04   0.02
     2   6     0.06  -0.02   0.07     0.01   0.00  -0.00    -0.08   0.02  -0.10
     3   6     0.01   0.02   0.01     0.00  -0.00  -0.00     0.01  -0.02  -0.02
     4   6    -0.01  -0.04  -0.01    -0.01   0.00  -0.01     0.05   0.10   0.01
     5   6    -0.01  -0.06   0.03    -0.01   0.00  -0.00     0.10   0.06  -0.04
     6   6     0.00  -0.02   0.04    -0.01   0.00   0.00     0.07  -0.03  -0.07
     7   1    -0.02  -0.04  -0.03    -0.02   0.01  -0.02     0.06   0.17   0.04
     8   1    -0.02  -0.11   0.05    -0.02   0.00  -0.00     0.13   0.10  -0.06
     9   1     0.01  -0.04   0.07    -0.01   0.00   0.01     0.08  -0.06  -0.11
    10   1     0.03  -0.08   0.16     0.01  -0.00   0.00    -0.05   0.06  -0.24
    11   7    -0.02   0.01   0.06     0.00   0.00  -0.02    -0.01  -0.00  -0.05
    12   1     0.17  -0.03   0.05     0.02   0.01  -0.00    -0.23   0.03  -0.08
    13   6     0.07   0.07   0.01    -0.01   0.00   0.00    -0.12  -0.14  -0.02
    14   6     0.06   0.04  -0.09    -0.01  -0.00  -0.00    -0.10  -0.12   0.10
    15   6     0.01  -0.06  -0.08    -0.01  -0.00  -0.00    -0.03  -0.01   0.09
    16   6    -0.02  -0.07   0.01    -0.02  -0.00  -0.00    -0.02   0.03  -0.03
    17   6     0.02   0.01   0.07    -0.01   0.00   0.00    -0.07  -0.05  -0.10
    18   1     0.07   0.15   0.01    -0.00   0.00   0.00    -0.12  -0.24  -0.02
    19   1     0.10   0.07  -0.16    -0.01  -0.00  -0.01    -0.12  -0.18   0.19
    20   1     0.01  -0.11  -0.13    -0.01  -0.01  -0.01    -0.03   0.03   0.15
    21   1     0.01   0.01   0.15    -0.01   0.00   0.00    -0.05  -0.06  -0.18
    22  26     0.01  -0.03  -0.03    -0.01   0.00   0.00    -0.02   0.00   0.03
    23   6    -0.11  -0.09   0.03    -0.01  -0.00  -0.00     0.07   0.09  -0.06
    24   1    -0.12  -0.21  -0.01    -0.01  -0.02   0.00     0.08   0.22  -0.01
    25   1    -0.24  -0.05   0.08    -0.03   0.00   0.00     0.19   0.05  -0.13
    26   6    -0.11   0.09   0.06     0.04   0.01  -0.04    -0.06  -0.10   0.00
    27   1    -0.17   0.12   0.04     0.04   0.02  -0.06    -0.00  -0.11   0.09
    28   1    -0.15   0.07   0.03     0.07   0.02  -0.02    -0.11  -0.10  -0.04
    29   1    -0.08   0.17   0.12     0.06   0.02  -0.07    -0.12  -0.16   0.01
    30  46     0.01   0.02   0.00     0.00  -0.00  -0.02     0.00   0.03  -0.00
    31   8     0.33   0.00   0.17     0.03  -0.01   0.03     0.18   0.01   0.12
    32   7    -0.06  -0.07  -0.11     0.01   0.00   0.02    -0.00  -0.04  -0.03
    33   6     0.11  -0.02   0.02     0.00  -0.01   0.02     0.06  -0.02   0.04
    34   6     0.01  -0.03  -0.07     0.01  -0.00   0.02     0.01  -0.02  -0.00
    35   6    -0.04  -0.01  -0.03     0.00   0.01   0.05    -0.01  -0.03   0.01
    36   8    -0.01  -0.04  -0.07    -0.03  -0.01   0.02    -0.02  -0.03  -0.03
    37   8    -0.02   0.02   0.02    -0.01   0.07   0.13    -0.01  -0.02   0.03
    38   1     0.01   0.00   0.01    -0.02   0.06   0.09    -0.01  -0.01   0.03
    39   1     0.03  -0.09  -0.05     0.01   0.00   0.02     0.02  -0.04  -0.02
    40   8    -0.05   0.02   0.00    -0.01  -0.05  -0.02    -0.00  -0.04   0.02
    41   6    -0.06   0.02   0.00     0.01  -0.00  -0.02     0.04  -0.03   0.00
    42   6    -0.05   0.02   0.00     0.01  -0.01  -0.02     0.02  -0.01   0.01
    43   6    -0.07   0.03  -0.01     0.05  -0.02  -0.00     0.05  -0.02   0.00
    44   6    -0.05   0.02   0.00    -0.02   0.02  -0.03    -0.01   0.03  -0.01
    45   1    -0.06   0.02   0.00    -0.29   0.00   0.01     0.09  -0.03   0.01
    46   1    -0.06   0.02   0.00     0.17   0.28  -0.04     0.02  -0.07  -0.02
    47   1    -0.06   0.02   0.00     0.17  -0.25  -0.03     0.03   0.01   0.01
    48   1    -0.07   0.02  -0.06    -0.05  -0.10   0.30     0.08   0.02  -0.05
    49   1    -0.12   0.04  -0.00     0.36  -0.06  -0.06    -0.01  -0.02   0.01
    50   1    -0.05   0.01   0.02    -0.14   0.08  -0.21     0.09  -0.05   0.04
    51   1    -0.05   0.03   0.01    -0.05  -0.15  -0.31     0.02   0.10   0.04
    52   1    -0.06   0.02  -0.00     0.17  -0.07   0.20    -0.10   0.05  -0.06
    53   1    -0.05   0.01   0.00    -0.20   0.30   0.01     0.01  -0.04  -0.01
    54   6    -0.03   0.10  -0.08     0.02   0.01   0.01    -0.04   0.07  -0.00
    55   1    -0.06   0.23  -0.20     0.01  -0.00   0.02    -0.09   0.08  -0.05
    56   1     0.02   0.02  -0.11     0.01   0.02   0.01    -0.06   0.10  -0.02
    57   1    -0.11   0.16   0.07     0.03   0.01   0.01    -0.00   0.13   0.06
                     13                     14                     15
                      A                      A                      A
 Frequencies --    168.9985               172.4341               181.0661
 Red. masses --      1.9598                 4.5178                 3.2381
 Frc consts  --      0.0330                 0.0791                 0.0625
 IR Inten    --      0.0000                 0.0000                 0.0000
  Atom  AN      X      Y      Z        X      Y      Z        X      Y      Z
     1   6     0.00  -0.00  -0.01    -0.01  -0.06   0.14     0.01  -0.00   0.03
     2   6     0.03   0.00   0.01    -0.16   0.01  -0.05    -0.01   0.01  -0.02
     3   6     0.01  -0.00  -0.00    -0.05  -0.05   0.06     0.00  -0.02   0.00
     4   6     0.00  -0.01  -0.01     0.02   0.02   0.13     0.04   0.01   0.03
     5   6     0.00  -0.01  -0.00     0.03   0.06   0.04     0.05   0.01  -0.00
     6   6     0.00  -0.00   0.00    -0.02   0.02  -0.00     0.02  -0.01  -0.02
     7   1    -0.00  -0.00  -0.01     0.06   0.03   0.17     0.05   0.02   0.04
     8   1    -0.00  -0.01  -0.00     0.08   0.11   0.01     0.07   0.02  -0.01
     9   1     0.00  -0.01   0.00    -0.03   0.04  -0.06     0.02  -0.01  -0.04
    10   1     0.02  -0.00   0.03    -0.12   0.05  -0.23    -0.00   0.02  -0.04
    11   7     0.02   0.00  -0.03    -0.09  -0.02  -0.07     0.01  -0.00  -0.05
    12   1     0.05   0.01   0.01    -0.34   0.06  -0.00    -0.03   0.03  -0.00
    13   6     0.01   0.01  -0.00     0.12   0.03   0.06     0.03  -0.00   0.01
    14   6     0.01   0.00  -0.01     0.11   0.01  -0.03     0.04  -0.02  -0.00
    15   6     0.00  -0.01  -0.01    -0.02   0.01  -0.07     0.02  -0.02  -0.01
    16   6    -0.00  -0.01   0.00    -0.09   0.02  -0.00    -0.01  -0.01  -0.00
    17   6     0.00   0.00   0.00     0.01   0.03   0.09     0.00   0.00   0.01
    18   1     0.01   0.01   0.00     0.18   0.04   0.10     0.04  -0.00   0.02
    19   1     0.01   0.00  -0.01     0.17   0.01  -0.07     0.06  -0.03  -0.01
    20   1     0.01  -0.02  -0.01    -0.07  -0.01  -0.16     0.02  -0.03  -0.02
    21   1    -0.00   0.01   0.01    -0.02   0.04   0.15    -0.01   0.01   0.02
    22  26     0.00  -0.00  -0.01    -0.00   0.03   0.09     0.02  -0.00   0.01
    23   6     0.00  -0.01   0.00    -0.12  -0.01   0.00    -0.00   0.00   0.00
    24   1     0.01  -0.03   0.01    -0.10  -0.05   0.01     0.01  -0.00   0.02
    25   1    -0.02  -0.00   0.01    -0.13  -0.00   0.04    -0.00   0.00  -0.00
    26   6     0.13   0.01  -0.08     0.02  -0.08  -0.10     0.22  -0.02  -0.13
    27   1     0.12   0.01  -0.12     0.06  -0.10  -0.10     0.23  -0.03  -0.20
    28   1     0.20   0.02  -0.00     0.07  -0.06  -0.04     0.35   0.01  -0.00
    29   1     0.16   0.02  -0.14    -0.00  -0.14  -0.18     0.25  -0.05  -0.26
    30  46    -0.01   0.00  -0.01     0.00  -0.03  -0.04    -0.03   0.02   0.00
    31   8     0.01   0.01   0.03     0.03  -0.05  -0.01     0.05   0.06   0.05
    32   7    -0.01   0.01   0.04     0.03   0.00  -0.06    -0.04  -0.02   0.04
    33   6    -0.00   0.00   0.02     0.00  -0.01  -0.02     0.02   0.01   0.02
    34   6     0.00  -0.00   0.03    -0.01   0.01  -0.06    -0.01  -0.02   0.05
    35   6    -0.02  -0.00   0.04     0.04   0.03  -0.04    -0.03  -0.03  -0.02
    36   8    -0.01  -0.00   0.01    -0.03   0.00   0.01     0.02  -0.01  -0.05
    37   8    -0.01   0.05   0.12     0.04   0.07   0.01     0.02  -0.13  -0.13
    38   1     0.02   0.03   0.10    -0.01   0.07   0.05     0.10  -0.14  -0.06
    39   1     0.01  -0.01   0.04    -0.02   0.01  -0.10    -0.00  -0.05   0.04
    40   8    -0.05  -0.06  -0.05     0.05   0.01  -0.04    -0.03   0.05   0.05
    41   6    -0.06  -0.03  -0.02     0.02  -0.00  -0.01    -0.05   0.04   0.03
    42   6    -0.03  -0.02  -0.02     0.04   0.00  -0.02    -0.06   0.02   0.03
    43   6     0.02  -0.02  -0.04     0.03   0.00  -0.02    -0.10   0.03   0.03
    44   6    -0.05   0.05   0.02     0.09  -0.04   0.02    -0.05  -0.02  -0.01
    45   1     0.05  -0.03  -0.02     0.12  -0.00  -0.02    -0.19   0.05   0.02
    46   1    -0.12  -0.13   0.00    -0.04  -0.10   0.01     0.03   0.18   0.02
    47   1    -0.12   0.06  -0.03    -0.04   0.09  -0.02     0.03  -0.07   0.03
    48   1     0.10   0.06  -0.19     0.01  -0.02   0.01    -0.08   0.03  -0.08
    49   1    -0.13  -0.00  -0.01     0.07   0.01  -0.03    -0.21   0.04   0.05
    50   1     0.14  -0.10   0.06    -0.00   0.02  -0.05    -0.04   0.00   0.10
    51   1     0.04   0.35   0.37     0.08  -0.01   0.16    -0.10  -0.19  -0.25
    52   1    -0.39   0.17  -0.25     0.05  -0.01  -0.05     0.15  -0.09   0.17
    53   1     0.18  -0.29  -0.03     0.20  -0.13   0.01    -0.22   0.20   0.02
    54   6     0.02  -0.01   0.02    -0.09   0.05  -0.01    -0.02  -0.02   0.05
    55   1     0.03  -0.03   0.04    -0.12   0.13  -0.12    -0.02  -0.03   0.05
    56   1     0.01  -0.00   0.01    -0.01  -0.02   0.03    -0.02  -0.02   0.05
    57   1     0.04  -0.02  -0.00    -0.19   0.06   0.09    -0.01  -0.02   0.05
                     16                     17                     18
                      A                      A                      A
 Frequencies --    194.5116               200.5327               212.9325
 Red. masses --      4.2193                 3.9540                 4.8629
 Frc consts  --      0.0941                 0.0937                 0.1299
 IR Inten    --      0.0000                 0.0000                 0.0000
  Atom  AN      X      Y      Z        X      Y      Z        X      Y      Z
     1   6     0.04  -0.01   0.07     0.02  -0.02  -0.03    -0.03  -0.01  -0.04
     2   6     0.06   0.02   0.04     0.02  -0.00  -0.04     0.00  -0.00  -0.02
     3   6     0.02   0.03   0.00     0.03  -0.02  -0.02    -0.01  -0.02  -0.02
     4   6     0.09   0.08   0.05    -0.03   0.07  -0.04    -0.05   0.02  -0.05
     5   6     0.11   0.08  -0.01    -0.02   0.07  -0.04    -0.05   0.00  -0.03
     6   6     0.07   0.04  -0.04     0.01   0.02  -0.03    -0.03  -0.01  -0.01
     7   1     0.12   0.12   0.09    -0.05   0.11  -0.05    -0.08   0.06  -0.07
     8   1     0.15   0.10  -0.03    -0.04   0.10  -0.04    -0.07   0.00  -0.02
     9   1     0.07   0.01  -0.09     0.01   0.01  -0.01    -0.03  -0.01   0.00
    10   1     0.04  -0.01   0.12     0.02  -0.03  -0.05     0.00   0.01  -0.03
    11   7     0.02   0.04   0.02    -0.02   0.01  -0.07     0.01  -0.01  -0.06
    12   1     0.14   0.02   0.03     0.03   0.03  -0.02    -0.00   0.02  -0.01
    13   6    -0.03   0.03   0.01    -0.05  -0.03   0.01     0.01  -0.03  -0.02
    14   6     0.01  -0.02   0.03    -0.04  -0.05   0.02    -0.01  -0.02  -0.04
    15   6     0.02  -0.03   0.04    -0.06  -0.03   0.01    -0.03  -0.02  -0.05
    16   6    -0.02   0.00   0.02    -0.09   0.01  -0.02    -0.04  -0.02  -0.04
    17   6    -0.05   0.04   0.01    -0.07  -0.01  -0.02    -0.02  -0.03  -0.02
    18   1    -0.05   0.06  -0.00    -0.02  -0.07   0.02     0.04  -0.06   0.00
    19   1     0.03  -0.03   0.04    -0.03  -0.06   0.03    -0.00  -0.02  -0.04
    20   1     0.06  -0.06   0.06    -0.05  -0.03   0.02    -0.04  -0.02  -0.06
    21   1    -0.07   0.06  -0.00    -0.06  -0.02  -0.02     0.00  -0.05   0.02
    22  26     0.04   0.05   0.01    -0.03   0.03   0.03    -0.03  -0.01  -0.00
    23   6    -0.02   0.00   0.02    -0.07  -0.01  -0.03    -0.00  -0.02  -0.05
    24   1    -0.01  -0.03   0.03    -0.04  -0.07  -0.01     0.02  -0.01  -0.02
    25   1    -0.05   0.02   0.02    -0.11  -0.00  -0.02    -0.00  -0.01  -0.08
    26   6    -0.01   0.12   0.00    -0.05   0.09  -0.08     0.06   0.06  -0.10
    27   1    -0.04   0.13  -0.05    -0.06   0.09  -0.13     0.10   0.04  -0.19
    28   1    -0.02   0.15  -0.01    -0.07   0.13  -0.10     0.08   0.17  -0.08
    29   1     0.01   0.17   0.06    -0.05   0.12  -0.02     0.03   0.05  -0.06
    30  46    -0.01  -0.03  -0.02     0.05  -0.05   0.04     0.06  -0.05   0.10
    31   8    -0.14  -0.09  -0.07     0.05  -0.05   0.00    -0.04   0.09  -0.10
    32   7    -0.06  -0.13  -0.11     0.01   0.01   0.04    -0.01   0.02  -0.01
    33   6    -0.05  -0.08   0.00     0.03  -0.03  -0.01     0.03   0.08  -0.06
    34   6     0.01  -0.04   0.00     0.05  -0.02   0.01     0.02   0.04   0.01
    35   6    -0.03  -0.06  -0.02     0.03   0.03   0.00    -0.02   0.00   0.00
    36   8    -0.03  -0.07   0.02     0.03  -0.02   0.01     0.03   0.04  -0.14
    37   8     0.04  -0.04   0.04     0.04   0.03   0.00    -0.05   0.00  -0.00
    38   1     0.13  -0.07   0.10     0.01   0.01  -0.02    -0.05  -0.00  -0.04
    39   1     0.04  -0.03   0.11     0.07  -0.02   0.06     0.03  -0.01  -0.02
    40   8    -0.03  -0.02   0.02    -0.00   0.07  -0.05    -0.01  -0.03   0.02
    41   6    -0.01  -0.03   0.02    -0.12   0.09  -0.02     0.04  -0.04   0.01
    42   6    -0.03  -0.02   0.02    -0.04   0.05  -0.03     0.01  -0.02   0.01
    43   6    -0.01  -0.02   0.02    -0.13   0.07  -0.05     0.05  -0.03   0.03
    44   6    -0.06   0.02   0.00     0.04  -0.04   0.02    -0.04   0.04  -0.01
    45   1    -0.15  -0.03   0.04    -0.18   0.11  -0.06     0.15  -0.05   0.02
    46   1     0.08   0.11  -0.02    -0.12   0.14   0.06     0.00  -0.13  -0.02
    47   1     0.08  -0.16   0.02    -0.13   0.08  -0.04     0.01   0.03   0.02
    48   1     0.05   0.04  -0.14    -0.15   0.01  -0.10     0.05  -0.01   0.08
    49   1    -0.17  -0.01   0.05    -0.16   0.12  -0.05     0.09  -0.06   0.02
    50   1     0.10  -0.09   0.12    -0.14   0.10  -0.05     0.03  -0.03   0.01
    51   1    -0.04   0.04  -0.05    -0.00  -0.09   0.12    -0.02   0.06  -0.09
    52   1    -0.07   0.01   0.02     0.08  -0.03  -0.01    -0.06   0.03   0.02
    53   1    -0.10   0.04   0.01     0.13  -0.08   0.01    -0.11   0.08  -0.00
    54   6     0.06   0.19  -0.11     0.14  -0.08  -0.02    -0.12   0.22   0.04
    55   1     0.06   0.27  -0.18     0.15  -0.33   0.18    -0.19   0.44  -0.21
    56   1     0.02   0.18  -0.23    -0.02   0.12  -0.01    -0.00   0.08   0.04
    57   1     0.13   0.30   0.03     0.37  -0.11  -0.23    -0.29   0.30   0.31
                     19                     20                     21
                      A                      A                      A
 Frequencies --    220.0978               224.7052               242.2654
 Red. masses --      1.2558                 1.1763                 3.3995
 Frc consts  --      0.0358                 0.0350                 0.1176
 IR Inten    --      0.0000                 0.0000                 0.0000
  Atom  AN      X      Y      Z        X      Y      Z        X      Y      Z
     1   6    -0.00  -0.00   0.02    -0.00   0.01  -0.00    -0.03   0.07   0.00
     2   6     0.01  -0.00   0.02    -0.00   0.00  -0.00    -0.03   0.02  -0.03
     3   6    -0.01   0.01  -0.00     0.00  -0.00   0.00     0.00  -0.00   0.01
     4   6     0.02   0.00   0.01    -0.00   0.00   0.00     0.01   0.04   0.01
     5   6     0.03   0.00  -0.00     0.00   0.00   0.00     0.03   0.00   0.01
     6   6     0.01   0.00  -0.01     0.00  -0.00   0.00     0.03  -0.02   0.00
     7   1     0.03   0.01   0.03    -0.00   0.00   0.00     0.01   0.06   0.01
     8   1     0.04   0.00  -0.01     0.00  -0.00   0.00     0.04  -0.00   0.01
     9   1     0.01  -0.00  -0.03     0.00  -0.00   0.00     0.04  -0.04  -0.01
    10   1     0.00  -0.01   0.06    -0.00   0.00  -0.01    -0.01   0.05  -0.10
    11   7     0.00   0.00   0.01    -0.00  -0.00  -0.00     0.01   0.01  -0.02
    12   1     0.05  -0.01   0.01    -0.01   0.00  -0.00    -0.10   0.03  -0.01
    13   6    -0.02   0.00  -0.01     0.00   0.00   0.00     0.03   0.01   0.03
    14   6    -0.01  -0.00   0.00     0.00   0.00  -0.00     0.03   0.00  -0.02
    15   6     0.01  -0.01   0.01    -0.00  -0.00  -0.00    -0.01  -0.02  -0.02
    16   6     0.01  -0.00   0.00    -0.00  -0.00   0.00    -0.03  -0.01   0.01
    17   6    -0.01   0.00  -0.01    -0.00   0.00   0.00    -0.01   0.00   0.04
    18   1    -0.03   0.01  -0.02     0.00   0.00   0.00     0.05   0.02   0.04
    19   1    -0.01  -0.00   0.01     0.00   0.00  -0.00     0.06   0.00  -0.03
    20   1     0.02  -0.01   0.02    -0.00  -0.00  -0.01    -0.02  -0.04  -0.06
    21   1    -0.01   0.00  -0.02    -0.00   0.00   0.01    -0.02   0.01   0.07
    22  26     0.01   0.00  -0.01    -0.00  -0.00   0.00    -0.01  -0.01   0.02
    23   6     0.00  -0.00   0.00    -0.01  -0.00   0.00    -0.02  -0.01   0.00
    24   1     0.00   0.00   0.00    -0.00  -0.01   0.00    -0.00  -0.03   0.03
    25   1     0.00   0.00   0.00    -0.01  -0.00   0.00    -0.04   0.00  -0.00
    26   6     0.04   0.02  -0.01    -0.00  -0.00  -0.00    -0.01  -0.02  -0.01
    27   1     0.04   0.02  -0.05    -0.01  -0.00   0.00    -0.02  -0.01   0.02
    28   1     0.07   0.04   0.01    -0.00  -0.01  -0.00    -0.01  -0.06  -0.01
    29   1     0.05   0.03  -0.02     0.00  -0.00  -0.01     0.00  -0.02  -0.03
    30  46    -0.03  -0.00   0.01     0.01   0.00  -0.00     0.09   0.02  -0.02
    31   8     0.01  -0.00   0.01    -0.00  -0.01   0.00    -0.04  -0.05  -0.01
    32   7    -0.02  -0.02  -0.01     0.00   0.01  -0.00    -0.01  -0.00  -0.03
    33   6     0.00  -0.01   0.00    -0.01  -0.00   0.00    -0.04  -0.01   0.00
    34   6     0.00  -0.01   0.00    -0.00   0.00  -0.01    -0.02   0.00  -0.03
    35   6    -0.00  -0.00  -0.01    -0.01  -0.00  -0.01    -0.05  -0.02  -0.01
    36   8     0.01  -0.01  -0.00    -0.01   0.00   0.02    -0.03   0.01   0.07
    37   8     0.01  -0.00  -0.00    -0.01   0.02   0.03    -0.05  -0.06  -0.04
    38   1     0.02  -0.00   0.01    -0.01   0.02   0.02     0.05  -0.02   0.00
    39   1     0.01  -0.01   0.03    -0.00   0.01  -0.01    -0.03   0.02  -0.03
    40   8    -0.00   0.01  -0.01    -0.01  -0.04  -0.05    -0.05  -0.00   0.07
    41   6     0.01   0.01  -0.01    -0.03   0.00   0.00    -0.02  -0.05   0.03
    42   6     0.01   0.01  -0.01    -0.00  -0.00   0.00    -0.06  -0.01   0.03
    43   6     0.01   0.01  -0.01     0.03  -0.01   0.01    -0.06  -0.02   0.06
    44   6     0.03  -0.01   0.00    -0.01   0.03   0.02    -0.18   0.10  -0.05
    45   1     0.42   0.01  -0.06     0.27   0.00  -0.03     0.15  -0.07   0.05
    46   1    -0.19  -0.35   0.01    -0.18  -0.27   0.03    -0.09  -0.20  -0.01
    47   1    -0.19   0.35   0.01    -0.19   0.26   0.01    -0.08   0.06   0.04
    48   1    -0.12  -0.10   0.34     0.14   0.09  -0.25    -0.16  -0.10   0.38
    49   1     0.39  -0.01  -0.08    -0.24  -0.00   0.06     0.27  -0.07  -0.01
    50   1    -0.23   0.14  -0.26     0.22  -0.12   0.20    -0.26   0.10  -0.15
    51   1     0.01  -0.05   0.01    -0.06  -0.17  -0.29    -0.09   0.25  -0.08
    52   1     0.07  -0.02   0.02     0.21  -0.08   0.30    -0.33   0.13  -0.10
    53   1     0.04   0.01   0.00    -0.20   0.37   0.06    -0.25   0.02  -0.04
    54   6     0.03   0.01  -0.02     0.01  -0.02  -0.01     0.00  -0.07  -0.02
    55   1     0.04   0.01  -0.01     0.01  -0.05   0.02     0.01  -0.18   0.07
    56   1     0.01   0.02  -0.05    -0.00  -0.00  -0.00    -0.05   0.01   0.01
    57   1     0.06   0.02  -0.03     0.03  -0.03  -0.04     0.08  -0.10  -0.14
                     22                     23                     24
                      A                      A                      A
 Frequencies --    250.6594               258.4601               270.2035
 Red. masses --      3.7307                 3.9448                 3.0623
 Frc consts  --      0.1381                 0.1553                 0.1317
 IR Inten    --      0.0000                 0.0000                 0.0000
  Atom  AN      X      Y      Z        X      Y      Z        X      Y      Z
     1   6    -0.06   0.01   0.08     0.03   0.08  -0.09     0.04  -0.04  -0.04
     2   6    -0.05  -0.01   0.06     0.04   0.01  -0.06     0.08  -0.06  -0.01
     3   6    -0.10   0.02   0.00     0.10  -0.01  -0.00     0.06  -0.07  -0.01
     4   6     0.04  -0.01   0.08    -0.06   0.07  -0.09    -0.02   0.05  -0.05
     5   6     0.06  -0.01   0.00    -0.05   0.00  -0.01    -0.03   0.07  -0.05
     6   6    -0.02   0.01  -0.05     0.04  -0.03   0.04     0.02   0.00  -0.02
     7   1     0.11  -0.02   0.14    -0.13   0.12  -0.15    -0.05   0.09  -0.07
     8   1     0.13  -0.02  -0.02    -0.11  -0.01   0.02    -0.06   0.13  -0.05
     9   1    -0.02  -0.02  -0.11     0.05  -0.03   0.11     0.01   0.03  -0.01
    10   1    -0.07   0.00   0.15     0.06  -0.02  -0.16     0.07  -0.10   0.00
    11   7    -0.02  -0.02   0.03    -0.01   0.02  -0.03     0.01  -0.03  -0.03
    12   1     0.03  -0.03   0.03    -0.04   0.03  -0.03     0.11  -0.03  -0.00
    13   6    -0.07   0.03  -0.03     0.08  -0.05   0.00     0.08  -0.06   0.04
    14   6    -0.05  -0.00  -0.02     0.02   0.01  -0.02     0.04  -0.01   0.05
    15   6    -0.02  -0.04  -0.01    -0.02   0.06  -0.05     0.02   0.06   0.02
    16   6    -0.02  -0.04   0.00     0.01   0.03  -0.03     0.04   0.05  -0.01
    17   6    -0.05   0.00  -0.02     0.08  -0.04  -0.01     0.08  -0.01   0.00
    18   1    -0.10   0.08  -0.05     0.10  -0.11   0.02     0.09  -0.14   0.05
    19   1    -0.04   0.00  -0.04    -0.00   0.01  -0.01     0.02  -0.02   0.07
    20   1     0.01  -0.06   0.01    -0.05   0.10  -0.06     0.02   0.09   0.05
    21   1    -0.04  -0.01  -0.02     0.12  -0.07  -0.01     0.10  -0.02  -0.02
    22  26    -0.01   0.00  -0.04    -0.03  -0.02   0.02     0.01   0.01   0.06
    23   6    -0.02  -0.03   0.01    -0.05  -0.01  -0.01     0.00  -0.04  -0.00
    24   1    -0.03  -0.02   0.00    -0.07  -0.10  -0.06    -0.01  -0.12  -0.04
    25   1    -0.03  -0.02  -0.01    -0.12   0.01   0.06    -0.04  -0.03   0.09
    26   6     0.09   0.03  -0.04     0.06  -0.06  -0.04    -0.06   0.10  -0.04
    27   1     0.14   0.00  -0.14    -0.23   0.07   0.08     0.20  -0.03  -0.19
    28   1     0.16   0.12   0.03     0.18  -0.41   0.10    -0.18   0.46  -0.17
    29   1     0.08   0.01  -0.06     0.30   0.10  -0.29    -0.28  -0.03   0.24
    30  46    -0.00  -0.01   0.05    -0.02   0.05   0.06    -0.04  -0.02  -0.01
    31   8     0.08  -0.03   0.01    -0.06  -0.04   0.02     0.04   0.05   0.03
    32   7    -0.00   0.07  -0.07    -0.05  -0.08  -0.09    -0.03   0.03  -0.01
    33   6    -0.01   0.04  -0.03    -0.06  -0.08   0.01    -0.01   0.05  -0.01
    34   6    -0.03   0.05  -0.11    -0.08  -0.06  -0.06    -0.05   0.02  -0.03
    35   6    -0.01   0.05  -0.05    -0.00  -0.01  -0.04    -0.01   0.04  -0.03
    36   8    -0.02   0.08   0.09     0.01  -0.07   0.06     0.01   0.06   0.01
    37   8    -0.06   0.06  -0.07     0.02   0.02   0.02     0.04   0.02  -0.04
    38   1    -0.11   0.09  -0.04     0.04  -0.01  -0.05     0.12  -0.03  -0.01
    39   1    -0.03   0.08  -0.09    -0.08  -0.01  -0.01    -0.06   0.03  -0.04
    40   8     0.03  -0.00   0.02     0.02   0.01  -0.00    -0.00   0.00  -0.00
    41   6     0.09  -0.08   0.01     0.05  -0.01  -0.00     0.02  -0.08   0.01
    42   6     0.04  -0.02   0.02     0.03  -0.00   0.00    -0.02  -0.02   0.02
    43   6     0.07  -0.04   0.05     0.03  -0.00   0.00     0.04  -0.05   0.07
    44   6     0.01   0.00  -0.01     0.06  -0.03   0.02    -0.07   0.03  -0.01
    45   1    -0.07  -0.10   0.09     0.01  -0.02   0.02     0.07  -0.11   0.07
    46   1     0.20   0.08  -0.07     0.09   0.04  -0.03     0.02  -0.13  -0.05
    47   1     0.21  -0.26   0.01     0.10  -0.07   0.01     0.03  -0.09   0.01
    48   1     0.14   0.04  -0.05     0.04   0.01  -0.02     0.06   0.00   0.14
    49   1    -0.05  -0.08   0.07     0.01  -0.00   0.01     0.08  -0.12   0.06
    50   1     0.17  -0.09   0.15     0.05  -0.02   0.02     0.04  -0.06   0.06
    51   1     0.03   0.05  -0.01     0.04  -0.06   0.05    -0.03   0.09  -0.06
    52   1    -0.03   0.01  -0.03     0.08  -0.03   0.01    -0.12   0.03  -0.01
    53   1    -0.00  -0.02  -0.00     0.09  -0.04   0.01    -0.12   0.03  -0.01
    54   6     0.07  -0.07  -0.14     0.01  -0.02  -0.13    -0.01  -0.06  -0.03
    55   1     0.12  -0.24   0.04     0.07   0.02  -0.12     0.03  -0.12   0.04
    56   1    -0.02   0.04  -0.13     0.01  -0.05  -0.19    -0.01  -0.04  -0.00
    57   1     0.20  -0.13  -0.33     0.02  -0.01  -0.12    -0.00  -0.11  -0.12
                     25                     26                     27
                      A                      A                      A
 Frequencies --    283.7635               305.4366               316.6687
 Red. masses --      1.4451                 3.0491                 3.5911
 Frc consts  --      0.0686                 0.1676                 0.2122
 IR Inten    --      0.0000                 0.0000                 0.0000
  Atom  AN      X      Y      Z        X      Y      Z        X      Y      Z
     1   6    -0.00   0.04  -0.02    -0.07   0.04   0.06    -0.01  -0.00   0.00
     2   6    -0.03   0.02  -0.03     0.02  -0.10   0.09     0.01  -0.06   0.08
     3   6     0.02   0.00  -0.00    -0.07  -0.03  -0.01    -0.01   0.04   0.02
     4   6     0.00   0.02  -0.02     0.03   0.04   0.06    -0.08  -0.02   0.00
     5   6     0.02  -0.03  -0.00     0.05   0.04  -0.03    -0.13   0.04   0.04
     6   6     0.04  -0.04   0.01    -0.02  -0.00  -0.07    -0.10   0.11   0.06
     7   1    -0.01   0.03  -0.02     0.09   0.03   0.11    -0.12  -0.05  -0.04
     8   1     0.02  -0.05   0.01     0.10   0.09  -0.06    -0.15   0.02   0.05
     9   1     0.05  -0.06   0.01    -0.02   0.01  -0.14    -0.11   0.14   0.12
    10   1    -0.01   0.04  -0.12    -0.02  -0.15   0.27    -0.01  -0.08   0.16
    11   7     0.01   0.01   0.01    -0.03  -0.07   0.02    -0.01  -0.07   0.02
    12   1    -0.13   0.01  -0.02     0.22  -0.11   0.05     0.10  -0.08   0.05
    13   6     0.01   0.04   0.02     0.00  -0.08  -0.02    -0.01  -0.06  -0.07
    14   6    -0.00   0.04  -0.02    -0.07   0.02   0.03     0.06  -0.12  -0.03
    15   6    -0.02  -0.00  -0.01    -0.01   0.11   0.01     0.04  -0.08  -0.04
    16   6    -0.01  -0.02   0.03     0.08   0.06  -0.04    -0.01  -0.02  -0.07
    17   6     0.00  -0.01   0.05     0.10  -0.04  -0.06    -0.08   0.03  -0.12
    18   1     0.00   0.07   0.01     0.01  -0.18  -0.02     0.00  -0.07  -0.06
    19   1     0.00   0.05  -0.04    -0.13   0.01   0.07     0.08  -0.15  -0.01
    20   1    -0.03  -0.02  -0.05     0.00   0.18   0.09     0.09  -0.11  -0.01
    21   1     0.01  -0.01   0.07     0.15  -0.08  -0.12    -0.12   0.06  -0.16
    22  26    -0.02  -0.03  -0.01    -0.03  -0.01   0.00     0.04   0.07   0.01
    23   6     0.02   0.02   0.01    -0.06  -0.11   0.02    -0.01  -0.10  -0.04
    24   1     0.03   0.06   0.05    -0.14  -0.31  -0.13    -0.03  -0.13  -0.08
    25   1     0.05   0.01  -0.03    -0.20  -0.08   0.23    -0.03  -0.09   0.02
    26   6     0.03   0.02  -0.01     0.01   0.05  -0.04     0.04  -0.15   0.02
    27   1     0.50  -0.18  -0.16     0.02   0.03  -0.16     0.40  -0.29  -0.00
    28   1    -0.07   0.54  -0.12     0.04   0.14  -0.01    -0.01   0.17  -0.03
    29   1    -0.33  -0.28   0.24     0.02   0.08   0.01    -0.23  -0.41   0.12
    30  46     0.00   0.02   0.01     0.03   0.03  -0.01     0.01   0.04   0.01
    31   8    -0.03  -0.02   0.00    -0.02  -0.03  -0.01    -0.02  -0.00   0.01
    32   7    -0.00  -0.02  -0.01     0.03   0.01   0.02    -0.01  -0.04  -0.03
    33   6    -0.01  -0.03   0.01    -0.00  -0.02   0.00    -0.01  -0.03   0.01
    34   6    -0.01  -0.02  -0.00     0.01  -0.01   0.00     0.00  -0.01   0.00
    35   6    -0.00  -0.02   0.01    -0.01  -0.04   0.03     0.00  -0.01  -0.01
    36   8    -0.00  -0.03   0.01    -0.01  -0.02   0.01     0.00  -0.03   0.01
    37   8    -0.02  -0.00   0.02    -0.07  -0.04   0.01     0.03  -0.01   0.01
    38   1    -0.06   0.02  -0.01    -0.09   0.03   0.03     0.07  -0.04   0.01
    39   1    -0.01  -0.01   0.00    -0.01  -0.01  -0.03     0.00   0.00   0.03
    40   8    -0.00  -0.01   0.00    -0.01  -0.03   0.02    -0.00   0.00  -0.01
    41   6     0.01   0.03  -0.01     0.00   0.06  -0.00     0.00  -0.00   0.00
    42   6     0.01   0.01  -0.01     0.01   0.00  -0.00    -0.01  -0.00   0.00
    43   6    -0.00   0.02  -0.03    -0.02   0.03  -0.05    -0.01  -0.00   0.01
    44   6     0.04  -0.02   0.01     0.04  -0.02   0.01    -0.01   0.01   0.01
    45   1    -0.02   0.04  -0.03    -0.02   0.09  -0.06     0.02  -0.00   0.00
    46   1     0.02   0.06   0.01     0.01   0.10   0.04     0.00  -0.01  -0.01
    47   1     0.02   0.02   0.00     0.00   0.08   0.01     0.00   0.00   0.01
    48   1    -0.00   0.00  -0.06    -0.04  -0.01  -0.10    -0.02  -0.01   0.02
    49   1    -0.02   0.05  -0.02    -0.04   0.10  -0.05     0.00  -0.00   0.00
    50   1     0.00   0.01  -0.02    -0.04   0.03  -0.07    -0.02   0.01  -0.00
    51   1     0.02  -0.05   0.04     0.02  -0.04   0.04    -0.00   0.01   0.00
    52   1     0.07  -0.02   0.01     0.06  -0.02   0.01    -0.02   0.01   0.01
    53   1     0.07  -0.02   0.01     0.06  -0.02   0.01    -0.01   0.01   0.01
    54   6    -0.00  -0.00  -0.01    -0.04  -0.01   0.02     0.03   0.03  -0.03
    55   1    -0.00   0.00  -0.01    -0.02   0.15  -0.09     0.02  -0.01   0.00
    56   1    -0.01   0.00  -0.02     0.06  -0.14   0.01    -0.02   0.07  -0.04
    57   1     0.01   0.01  -0.00    -0.19  -0.01   0.14     0.10   0.05  -0.04
                     28                     29                     30
                      A                      A                      A
 Frequencies --    336.4536               338.4136               346.7607
 Red. masses --      2.8808                 2.8798                 4.8437
 Frc consts  --      0.1921                 0.1943                 0.3432
 IR Inten    --      0.0000                 0.0000                 0.0000
  Atom  AN      X      Y      Z        X      Y      Z        X      Y      Z
     1   6    -0.04  -0.01   0.01    -0.05   0.01   0.01     0.01   0.08   0.04
     2   6     0.02  -0.01   0.01     0.03  -0.01   0.02     0.07  -0.04   0.11
     3   6    -0.04  -0.03  -0.01    -0.04  -0.03  -0.01     0.05   0.01   0.06
     4   6    -0.02   0.03   0.00    -0.02   0.05   0.01    -0.01   0.18   0.02
     5   6    -0.02   0.04  -0.03    -0.01   0.04  -0.03     0.05   0.05   0.05
     6   6    -0.03   0.00  -0.04    -0.03   0.00  -0.04     0.08  -0.02   0.06
     7   1    -0.03   0.08   0.01    -0.03   0.11   0.02    -0.04   0.26   0.02
     8   1     0.00   0.07  -0.05     0.01   0.08  -0.04     0.04   0.04   0.05
     9   1    -0.03  -0.00  -0.07    -0.03  -0.01  -0.06     0.10  -0.08   0.06
    10   1     0.01   0.04   0.06     0.01   0.04   0.08     0.06  -0.04   0.14
    11   7     0.07  -0.01  -0.01     0.07  -0.02   0.00     0.07  -0.05   0.06
    12   1     0.06  -0.01   0.00     0.07  -0.01   0.01     0.13  -0.05   0.09
    13   6     0.05  -0.01   0.02     0.06  -0.01   0.01     0.06  -0.01  -0.06
    14   6     0.05  -0.02  -0.02     0.05  -0.03  -0.03     0.01   0.03  -0.12
    15   6     0.01  -0.06  -0.02     0.00  -0.06  -0.04    -0.07   0.04  -0.14
    16   6    -0.02  -0.04   0.01    -0.02  -0.05   0.00    -0.02  -0.02  -0.06
    17   6    -0.01  -0.01   0.03    -0.01  -0.01   0.02    -0.01  -0.00  -0.05
    18   1     0.07   0.01   0.03     0.08  -0.00   0.03     0.12  -0.01  -0.03
    19   1     0.08  -0.02  -0.04     0.08  -0.02  -0.06     0.03   0.04  -0.14
    20   1     0.03  -0.10  -0.04     0.02  -0.10  -0.06    -0.05  -0.01  -0.17
    21   1    -0.04   0.01   0.06    -0.03   0.01   0.05    -0.01  -0.00  -0.00
    22  26    -0.00  -0.00   0.03    -0.01   0.00   0.03    -0.08   0.01   0.01
    23   6     0.09   0.00  -0.03     0.10  -0.01  -0.03     0.14  -0.02  -0.07
    24   1     0.13   0.11   0.05     0.13   0.11   0.05     0.16   0.17  -0.01
    25   1     0.17  -0.02  -0.14     0.18  -0.03  -0.15     0.28  -0.06  -0.20
    26   6    -0.02   0.04   0.01    -0.00   0.03   0.02     0.05  -0.02   0.07
    27   1    -0.14   0.09   0.03    -0.11   0.08   0.03     0.01  -0.00   0.08
    28   1    -0.04  -0.06  -0.01    -0.03  -0.06  -0.00     0.03  -0.06   0.06
    29   1     0.06   0.14   0.03     0.06   0.12   0.04     0.07   0.01   0.07
    30  46     0.00   0.00  -0.01     0.00   0.01  -0.01    -0.04  -0.01   0.00
    31   8    -0.01   0.06   0.02    -0.01   0.04   0.01     0.04  -0.15  -0.08
    32   7    -0.03  -0.02  -0.03    -0.03  -0.02  -0.04     0.06   0.06   0.04
    33   6    -0.02   0.04   0.01    -0.02   0.03   0.00     0.08  -0.07  -0.03
    34   6    -0.04   0.01   0.00    -0.03   0.00  -0.01     0.10  -0.00  -0.02
    35   6    -0.05  -0.06  -0.04    -0.04   0.00   0.05     0.04   0.02  -0.00
    36   8     0.00   0.04  -0.00    -0.00   0.02   0.01    -0.04  -0.03   0.02
    37   8    -0.07  -0.03   0.02    -0.06  -0.02   0.03     0.01   0.02  -0.04
    38   1    -0.01  -0.01   0.05    -0.01  -0.02   0.01    -0.06   0.09  -0.01
    39   1    -0.03   0.02   0.01    -0.03   0.01  -0.00     0.09  -0.05  -0.10
    40   8    -0.05  -0.10  -0.06    -0.01   0.03   0.12     0.03   0.02  -0.04
    41   6     0.17   0.07  -0.03    -0.10   0.04   0.03    -0.02  -0.04  -0.01
    42   6     0.00  -0.02  -0.00     0.01  -0.00   0.02     0.01   0.01  -0.01
    43   6    -0.11   0.01  -0.03     0.16   0.03  -0.10    -0.05  -0.01   0.05
    44   6     0.06   0.04   0.14     0.01  -0.13  -0.09    -0.02   0.06  -0.01
    45   1     0.20   0.10  -0.11    -0.13   0.06  -0.02    -0.03  -0.05   0.04
    46   1     0.24   0.13  -0.15    -0.13   0.05   0.17    -0.03  -0.05  -0.01
    47   1     0.28   0.07   0.15    -0.16   0.08  -0.04    -0.04  -0.06  -0.05
    48   1    -0.18  -0.12  -0.07     0.24   0.15  -0.13    -0.07  -0.04   0.06
    49   1    -0.13   0.08  -0.02     0.20   0.11  -0.10    -0.08  -0.07   0.06
    50   1    -0.17   0.09  -0.03     0.22  -0.15  -0.19    -0.06   0.06   0.11
    51   1     0.03   0.02   0.22    -0.03  -0.21  -0.10     0.01   0.11  -0.04
    52   1     0.01   0.00   0.25     0.16  -0.09  -0.22    -0.08   0.05   0.01
    53   1     0.21   0.14   0.12    -0.06  -0.24  -0.09    -0.04   0.08  -0.01
    54   6    -0.01  -0.01  -0.00    -0.01  -0.01  -0.01    -0.06   0.01   0.09
    55   1    -0.01  -0.15   0.10    -0.03  -0.14   0.08    -0.23  -0.14   0.07
    56   1    -0.08   0.09   0.02    -0.08   0.09   0.01    -0.11   0.15   0.24
    57   1     0.11  -0.03  -0.12     0.10  -0.02  -0.11     0.01   0.03   0.07
                     31                     32                     33
                      A                      A                      A
 Frequencies --    357.2250               372.2418               389.1779
 Red. masses --      5.9956                 3.5586                 1.7660
 Frc consts  --      0.4508                 0.2905                 0.1576
 IR Inten    --      0.0000                 0.0000                 0.0000
  Atom  AN      X      Y      Z        X      Y      Z        X      Y      Z
     1   6     0.09   0.02   0.06     0.03   0.05  -0.05    -0.04   0.02  -0.02
     2   6     0.02  -0.02   0.07    -0.00   0.02  -0.01    -0.04   0.01  -0.00
     3   6     0.11   0.05   0.09     0.07   0.03   0.02    -0.04   0.01  -0.01
     4   6     0.05   0.06   0.07    -0.00   0.02  -0.05    -0.02   0.01  -0.02
     5   6     0.09  -0.04   0.13     0.00  -0.03   0.03    -0.00  -0.02  -0.02
     6   6     0.13  -0.03   0.14     0.06  -0.00   0.06    -0.01  -0.01  -0.02
     7   1     0.03   0.08   0.05    -0.05   0.05  -0.09    -0.06   0.10  -0.03
     8   1     0.07  -0.10   0.15    -0.04  -0.08   0.06    -0.00  -0.02  -0.02
     9   1     0.14  -0.07   0.18     0.06  -0.02   0.11    -0.01  -0.01  -0.03
    10   1     0.03  -0.08   0.01     0.01  -0.02  -0.10    -0.04   0.02  -0.02
    11   7    -0.02  -0.03   0.00    -0.06   0.03   0.02    -0.04   0.02   0.04
    12   1    -0.01   0.00   0.08    -0.08   0.03   0.00    -0.06  -0.00  -0.00
    13   6    -0.06   0.05  -0.08     0.01  -0.02  -0.01     0.03  -0.03   0.01
    14   6    -0.07   0.08  -0.07     0.02  -0.02   0.03     0.02  -0.01   0.03
    15   6    -0.08   0.13  -0.09     0.04   0.03   0.02     0.04   0.01   0.02
    16   6    -0.01   0.06  -0.07     0.03   0.05  -0.01     0.06   0.01   0.01
    17   6    -0.01   0.03  -0.08     0.01   0.04  -0.04     0.04  -0.00  -0.01
    18   1    -0.10   0.07  -0.11    -0.00  -0.05  -0.01     0.02  -0.07  -0.00
    19   1    -0.10   0.08  -0.07     0.03  -0.05   0.08     0.02  -0.03   0.05
    20   1    -0.09   0.14  -0.08     0.05   0.05   0.05     0.04   0.03   0.04
    21   1     0.04  -0.01  -0.07    -0.03   0.07  -0.07    -0.03   0.05  -0.04
    22  26    -0.05   0.02  -0.02     0.03   0.01  -0.01     0.02  -0.02  -0.01
    23   6    -0.03  -0.04  -0.03    -0.08   0.02   0.02    -0.04   0.01   0.03
    24   1    -0.06  -0.12  -0.08    -0.12  -0.09  -0.07    -0.08  -0.06  -0.04
    25   1    -0.07  -0.04   0.07    -0.16   0.04   0.13    -0.10   0.02   0.09
    26   6    -0.01  -0.09   0.02     0.02  -0.03   0.01     0.02   0.03   0.02
    27   1     0.05  -0.11   0.07     0.08  -0.06   0.02     0.02   0.02  -0.02
    28   1    -0.01  -0.09   0.01     0.06  -0.01   0.05     0.06   0.04   0.06
    29   1    -0.05  -0.15  -0.01    -0.01  -0.10  -0.06     0.03   0.03  -0.02
    30  46     0.03  -0.06  -0.03    -0.02  -0.03   0.01     0.00  -0.00  -0.00
    31   8    -0.04   0.22   0.12     0.07  -0.08  -0.10    -0.02  -0.00   0.00
    32   7    -0.07  -0.07  -0.04     0.00   0.02  -0.02    -0.01  -0.04  -0.05
    33   6    -0.08   0.11   0.06     0.05   0.06  -0.06     0.01  -0.01   0.02
    34   6    -0.15   0.01   0.06     0.07   0.03  -0.07     0.01   0.01   0.03
    35   6    -0.03  -0.02  -0.00    -0.04  -0.02   0.01    -0.00  -0.00  -0.02
    36   8     0.07   0.04  -0.08    -0.08   0.12   0.06     0.01  -0.03  -0.03
    37   8     0.03  -0.01   0.03    -0.02  -0.05   0.01    -0.04   0.02   0.01
    38   1    -0.02  -0.05   0.04     0.13  -0.06   0.04    -0.06   0.05  -0.02
    39   1    -0.15   0.05   0.09     0.08  -0.06  -0.11     0.01  -0.02   0.00
    40   8    -0.03  -0.00   0.01    -0.02  -0.08   0.07    -0.00   0.03  -0.02
    41   6     0.03   0.01  -0.00     0.05   0.12   0.05    -0.02  -0.05  -0.03
    42   6    -0.02   0.00   0.00    -0.02  -0.07   0.06     0.01   0.04  -0.03
    43   6     0.03   0.00  -0.01     0.01  -0.01  -0.13     0.00   0.02   0.05
    44   6     0.02  -0.04   0.02    -0.06  -0.04   0.04     0.04   0.01  -0.02
    45   1     0.04   0.01  -0.01     0.07   0.19  -0.16    -0.04  -0.08   0.07
    46   1     0.04   0.01  -0.04     0.06   0.16   0.10    -0.02  -0.06  -0.04
    47   1     0.05   0.01   0.03     0.07   0.22   0.19    -0.03  -0.10  -0.09
    48   1     0.06   0.04  -0.01     0.00  -0.04  -0.19     0.01   0.03   0.07
    49   1     0.05   0.01  -0.02     0.08   0.21  -0.14    -0.03  -0.07   0.06
    50   1     0.05  -0.04  -0.03    -0.02  -0.10  -0.28     0.02   0.06   0.12
    51   1    -0.01  -0.08   0.05    -0.04  -0.02   0.02     0.02  -0.02   0.00
    52   1     0.06  -0.04   0.01    -0.07  -0.04   0.04     0.07   0.01  -0.03
    53   1     0.05  -0.05   0.01    -0.08  -0.04   0.04     0.06   0.00  -0.02
    54   6    -0.02  -0.00  -0.02    -0.05   0.02   0.02    -0.06   0.06   0.08
    55   1     0.03  -0.22   0.20    -0.18  -0.19   0.06    -0.22  -0.40   0.29
    56   1    -0.18   0.17  -0.09    -0.13   0.19   0.14    -0.30   0.43   0.17
    57   1     0.25  -0.01  -0.23     0.08   0.02  -0.09     0.36   0.10  -0.19
                     34                     35                     36
                      A                      A                      A
 Frequencies --    403.2277               421.8056               428.5455
 Red. masses --      4.1881                 3.0584                 3.8874
 Frc consts  --      0.4012                 0.3206                 0.4206
 IR Inten    --      0.0000                 0.0000                 0.0000
  Atom  AN      X      Y      Z        X      Y      Z        X      Y      Z
     1   6    -0.01   0.06  -0.04     0.01  -0.03   0.00     0.06  -0.13   0.08
     2   6    -0.04   0.11   0.01    -0.04  -0.02   0.01     0.11   0.11  -0.08
     3   6    -0.02   0.13  -0.02    -0.01  -0.00  -0.00    -0.02  -0.02  -0.04
     4   6    -0.01   0.14  -0.06    -0.01  -0.00  -0.00     0.04  -0.09   0.08
     5   6     0.00   0.11  -0.05    -0.01   0.01  -0.02     0.01   0.03  -0.02
     6   6     0.02   0.07  -0.03    -0.01   0.00  -0.01    -0.07   0.04  -0.06
     7   1     0.02   0.09  -0.04    -0.01   0.02   0.00     0.08  -0.10   0.11
     8   1    -0.01   0.12  -0.05    -0.02   0.03  -0.02     0.05   0.11  -0.06
     9   1     0.02   0.07  -0.05    -0.02   0.01  -0.02    -0.10   0.14  -0.11
    10   1    -0.02   0.14  -0.09    -0.04  -0.01  -0.02     0.10   0.17  -0.05
    11   7    -0.03   0.11   0.16    -0.04  -0.02   0.04     0.16   0.11  -0.05
    12   1    -0.14   0.03  -0.01    -0.07  -0.04   0.01     0.10   0.11  -0.08
    13   6     0.05  -0.13  -0.01    -0.00  -0.00  -0.00    -0.01  -0.05  -0.02
    14   6     0.02  -0.10  -0.03    -0.00   0.00  -0.01    -0.07   0.02  -0.05
    15   6    -0.01  -0.06  -0.03    -0.00  -0.01  -0.00    -0.09   0.04  -0.06
    16   6     0.01  -0.09   0.03     0.01  -0.02   0.01    -0.03  -0.04   0.00
    17   6     0.05  -0.13   0.02     0.02  -0.02   0.01     0.03  -0.09   0.02
    18   1     0.13  -0.19   0.05    -0.01   0.00  -0.01     0.04  -0.09   0.01
    19   1     0.01  -0.10  -0.01    -0.02   0.02  -0.02    -0.13   0.07  -0.07
[...]
 0.00000561,-0.00006446,-0.00001199,0.00006422,-0.00053930,0.00028139,-
 0.00007330,-0.00004129,-0.00000550,0.00002675,0.00000292,-0.00003553,0
 .00002329,0.00000332,-0.00000581,0.00000117,-0.00001227,-0.00003245,0.
 00001701,-0.00001487,0.00001004,-0.00031639,0.00005244,0.00038251,0.00
 009412,0.00004753,-0.00000513,0.00004793,-0.00001818,0.00003411,0.0000
 9799,-0.00002904,-0.00032682,-0.00067026,0.00023300,0.00051541,-0.0004
 2866,0.00006664,0.00010177,-0.00001814,-0.00002681,0.00001892,-0.00000
 575,-0.00004487,-0.00002385,-0.00013008,-0.00033126,-0.00004250,0.0002
 2358,0.00016737,-0.00043026,0.00006454,-0.00002280,-0.00008018,-0.0000
 0926,-0.00001856,0.00000751,0.00001120,-0.00004316,-0.00006303,0.00000
 544,-0.00000653,-0.00005409,-0.00001928,-0.00002704,-0.00000758,-0.000
 00528,-0.00000081,0.00001316,-0.00001601,0.00000627,0.00000215,-0.0003
 7677,0.00025319,0.00031886,0.00120431,-0.00037815,-0.00068341,0.000317
 82,-0.00068364,0.00050299,-0.00187674,0.00052746,-0.00169379,0.0077563
 0,-0.00913688,-0.01204560,-0.00018406,0.00025738,0.00009758,0.00039587
 ,-0.00047771,0.00043473,0.00014894,-0.00004047,0.00001504,-0.00021192,
 -0.00002341,0.00004667,0.00133369,-0.00056049,-0.00060731,0.00008196,-
 0.00001796,0.00004130,0.00000761,-0.00000597,0.00001050,-0.00004266,0.
 00003992,-0.00006125,0.00000615,-0.00001224,-0.00001438,0.00000339,-0.
 00001004,-0.00001755,0.00000425,-0.00000452,0.00000216,-0.00000120,0.0
 0000074,0.00000704,-0.00000494,-0.00000512,0.00001125,-0.00000818,-0.0
 0000236,0.00001252,0.00000701,0.00003485,-0.00000539,0.00000445,-0.000
 00804,0.00002423,0.00000907,-0.00000540,0.00002137,0.00000192,-0.00001
 084,0.00000144,-0.00003464,0.00000773,0.00000520,-0.12584023,0.0717197
 5,0.08894497,0.14304069,-0.00000304,0.00014378,-0.00009996,-0.00000546
 ,-0.00004819,0.00005359,0.00004060,0.00001786,-0.00005626,0.00001509,-
 0.00011582,0.00013411,0.00008837,0.00005763,-0.00001310,0.00003371,-0.
 00004711,-0.00000343,-0.00024873,-0.00023463,0.00029699,-0.00000745,0.
 00001366,0.00000615,0.00002201,-0.00004306,-0.00001904,0.00002598,-0.0
 0000861,0.00002868,0.00002327,-0.00001801,-0.00005123,0.00001097,0.000
 00595,-0.00000886,-0.00013049,-0.00003414,-0.00009547,0.00004336,0.000
 07023,-0.00004315,-0.00010184,-0.00007360,-0.00001856,0.00008414,0.000
 14393,-0.00002306,-0.00017568,0.00001874,0.00000045,0.00004685,0.00006
 122,0.00007490,0.00000738,0.00002769,0.00000042,-0.00004720,0.00001898
 ,-0.00001076,-0.00020841,-0.00010955,0.00010647,-0.00013262,-0.0001877
 7,0.00002787,-0.00001487,0.00002111,0.00001323,0.00002702,0.00001338,-
 0.00000720,-0.00001560,0.00000184,0.00000939,0.00000192,0.00001767,0.0
 0009413,-0.00000211,0.00001677,0.00001853,0.00001153,0.00000274,-0.000
 01855,0.00001851,-0.00001818,0.00000041,-0.00023626,-0.00039397,-0.000
 00948,0.00097816,0.00003278,-0.00073441,-0.00013424,0.00041748,0.00048
 217,-0.00217320,0.00060830,-0.00136208,0.00269792,-0.00642563,-0.01055
 435,0.00055336,-0.00015766,-0.00031217,0.00014590,-0.00031578,0.000353
 05,-0.00001722,0.00013247,-0.00015576,0.00004553,-0.00000529,0.0000378
 0,0.00012370,0.00019908,0.00002981,-0.00048418,-0.00006861,0.00026893,
 -0.00002514,-0.00000629,0.00000180,0.00013184,-0.00004545,-0.00003603,
 -0.00001158,0.00000815,0.00001342,-0.00000528,-0.00001095,-0.00001860,
 0.00000854,-0.00000040,-0.00000354,-0.00000640,0.00000355,-0.00000175,
 0.00000698,-0.00000928,0.00002059,-0.00000565,-0.00000462,-0.00001860,
 0.00003072,0.00001716,0.00001254,0.00000002,-0.00002485,0.00001191,0.0
 0000578,-0.00001156,0.00001012,-0.00000881,-0.00001134,-0.00002193,-0.
 00002293,0.00003304,0.00002911,0.07134805,-0.10309668,-0.07120711,-0.0
 8180713,0.11767946,-0.00009564,0.00024075,-0.00014604,-0.00007006,-0.0
 0007001,0.00006362,-0.00006415,-0.00001728,0.00003635,0.00026083,-0.00
 006505,-0.00021046,0.00010870,0.00000733,0.00013133,-0.00006928,-0.000
 00884,0.00001324,0.00015756,0.00061638,0.00001725,0.00003310,0.0000049
 1,0.00001407,-0.00004012,-0.00002937,0.00003284,-0.00002091,-0.0000025
 5,0.00002232,-0.00004848,-0.00002723,0.00006692,-0.00001243,0.00000450
 ,0.00001240,0.00012922,0.00000796,-0.00015766,-0.00004243,-0.00001975,
 -0.00001970,-0.00007988,-0.00004784,-0.00000471,-0.00009425,-0.0000249
 8,0.00010648,0.00033581,-0.00001408,-0.00015248,0.00020699,0.00003180,
 0.00007229,-0.00001341,0.00001545,-0.00000805,-0.00002791,0.00001803,0
 .00000157,0.00013203,0.00007532,-0.00022328,-0.00046713,-0.00021672,0.
 00037259,-0.00004955,0.00002169,0.00005128,0.00000623,0.00001893,-0.00
 000205,-0.00005147,0.00004858,0.00003782,-0.00000963,-0.00000123,0.000
 07963,-0.00001074,0.00004502,0.00005164,0.00001614,0.00001125,-0.00000
 134,0.00001186,-0.00002531,0.00001959,0.00022119,-0.00067690,-0.000734
 81,0.00192473,0.00013634,-0.00115423,0.00006720,-0.00028204,0.00117771
 ,-0.00433047,0.00138764,-0.00215835,0.00919233,-0.01645043,-0.02276150
 ,0.00053630,-0.00026237,-0.00092010,0.00048674,-0.00107405,0.00067140,
 -0.00002660,0.00039841,-0.00002904,0.00014160,-0.00002999,-0.00013631,
 0.00040602,0.00033941,0.00132166,-0.00082491,-0.00000739,0.00070151,0.
 00000181,-0.00000386,0.00001861,-0.00004151,-0.00011562,-0.00019643,0.
 00003554,0.00000230,-0.00001560,0.00001282,-0.00001816,-0.00001428,0.0
 0002349,0.00001118,0.00002050,0.00000109,0.00000328,0.00002197,0.00001
 567,-0.00001508,0.00000580,0.00004470,-0.00002422,0.00001837,-0.000056
 90,0.00006836,0.00009757,0.00001289,0.00001751,-0.00004044,0.00002781,
 -0.00000577,0.00000819,0.00001061,0.00000148,-0.00001030,-0.00006083,0
 .00000150,0.00007172,0.08995849,-0.07342543,-0.13355442,-0.10002659,0.
 08821824,0.15612405,-0.00127335,0.00055512,-0.00083180,0.00005771,0.00
 029145,-0.00089220,0.00065303,0.00066032,-0.00047844,-0.00003401,-0.00
 137350,0.00081656,-0.00014423,0.00088257,0.00046857,-0.00009333,0.0003
 4852,-0.00045085,0.00005287,0.00100025,0.00057809,-0.00014798,0.000400
 03,0.00017377,-0.00002083,0.00039698,-0.00023585,-0.00002629,0.0001198
 3,-0.00033516,-0.00041514,-0.00022136,-0.00089627,0.00004458,0.0000216
 1,-0.00012020,-0.00632319,-0.00196402,-0.00094121,0.00026029,-0.000687
 25,0.00061685,0.00063936,-0.00046355,0.00019947,0.00030011,-0.00035596
 ,0.00003749,-0.00552696,0.00234847,0.00408983,-0.00370470,-0.00057400,
 -0.00280840,0.00038944,-0.00008124,0.00027563,0.00038369,0.00000226,-0
 .00020992,-0.00139283,0.00122863,0.00108083,0.00112454,0.00382472,-0.0
 0156115,0.00027800,-0.00059914,-0.00046106,-0.00001522,-0.00002707,-0.
 00017524,0.00000412,-0.00005958,-0.00008340,0.00005667,0.00001325,0.00
 007536,0.00003255,0.00003916,-0.00005011,-0.00006052,0.00000677,0.0000
 1713,0.00007254,-0.00005740,-0.00007166,0.00253045,-0.00055586,-0.0006
 8321,-0.00057574,-0.00006610,0.00017204,0.00070595,-0.00035594,0.00200
 625,0.00059778,-0.00142140,-0.00051226,-0.01637804,-0.01031430,0.00013
 216,-0.00217338,0.00087540,-0.00076971,-0.00006459,0.00050203,0.000185
 46,-0.00064062,-0.00087312,0.00067702,0.00072583,0.00040333,-0.0002577
 5,-0.00146416,-0.00132996,-0.00293429,0.00099106,0.00006248,-0.0002091
 8,0.00003176,-0.00002241,0.00000895,-0.00021392,0.00003041,-0.00009335
 ,0.00004980,-0.00002135,0.00001336,0.00003041,-0.00001781,0.00001270,0
 .00000325,0.00000481,0.00001198,0.00001961,-0.00000593,0.00002205,-0.0
 0000334,0.00001335,-0.00003464,0.00004526,-0.00002278,0.00001012,-0.00
 003497,0.00000823,0.00003402,-0.00000879,0.00005181,-0.00003257,0.0000
 2409,0.00000923,-0.00000533,0.00002025,0.00001101,0.00001570,0.0000011
 4,-0.00001790,0.00000500,-0.15765038,-0.09262654,0.05364182,-0.0159964
 1,-0.01009268,0.00952492,0.19587024,-0.00032814,0.00001380,0.00066597,
 0.00021909,0.00018970,-0.00072430,0.00011301,0.00047670,-0.00061777,-0
 .00103967,-0.00297633,0.00109728,-0.00088837,0.00031473,0.00010147,-0.
 00004812,0.00054720,-0.00024071,0.00118404,-0.00456744,0.00059973,-0.0
 0026000,0.00017135,0.00005758,0.00021976,0.00025984,-0.00021644,0.0001
 1528,-0.00004522,-0.00023640,-0.00003275,-0.00012528,-0.00091695,0.000
 07069,-0.00004851,-0.00006541,-0.00180631,-0.00006152,0.00065766,0.000
 76563,-0.00000076,0.00036699,0.00041978,-0.00025317,-0.00006081,0.0012
 2141,-0.00005500,-0.00106188,-0.00088063,-0.00001595,0.00075203,-0.001
 10009,0.00113310,-0.00004537,0.00021830,-0.00013003,0.00022535,0.00010
 663,-0.00013336,-0.00011018,0.00175273,-0.00220036,-0.00116528,0.00299
 534,-0.00001212,-0.00084305,0.00024444,-0.00033374,-0.00048799,-0.0000
 0560,-0.00000934,0.00000631,0.00004037,-0.00013324,-0.00017874,0.00003
 653,0.00002327,0.00001629,0.00001878,0.00003233,-0.00007408,-0.0000355
 9,-0.00000867,0.00001506,0.00006783,-0.00006635,-0.00000748,-0.0002012
 8,0.00163788,-0.00052592,0.00040876,-0.00011230,-0.00024465,0.00226768
 ,0.00084424,0.00182040,-0.00096566,-0.00112890,0.00032910,-0.00986751,
 -0.00616293,0.00091683,-0.00065766,0.00078355,-0.00007283,0.00019336,0
 .00007039,-0.00004380,-0.00002766,-0.00055175,0.00015944,-0.00007219,0
 .00012265,0.00009777,-0.00071149,-0.00014697,-0.00134631,0.00051079,0.
 00003028,-0.00013163,0.00001720,-0.00000888,0.00000818,-0.00002630,-0.
 00000828,-0.00004233,0.00003055,-0.00001917,-0.00000157,0.00001904,-0.
 00001183,0.00000241,-0.00000291,-0.00001038,-0.00000088,0.00000089,-0.
 00000367,0.00000614,0.00000224,0.00000632,-0.00000685,-0.00000043,-0.0
 0000883,0.00000408,-0.00000185,0.00001351,-0.00000142,0.00000569,0.000
 00842,0.00000955,0.00000452,0.00000216,0.00000493,0.00000452,-0.000010
 74,0.00000827,-0.00000623,-0.00000607,0.00000013,-0.09194118,-0.116730
 22,0.04111292,0.01181993,0.00910250,-0.00534561,0.10416539,0.13721528,
 0.00066746,0.00082096,-0.00048945,-0.00005188,-0.00006908,0.00044410,0
 .00002674,-0.00033340,0.00005892,0.00052989,0.00161057,0.00041658,-0.0
 0004066,-0.00035314,0.00014445,-0.00011825,-0.00013638,-0.00009415,0.0
 0027178,0.00046766,0.00076263,-0.00014943,-0.00039420,-0.00009999,-0.0
 0006133,-0.00010263,-0.00004232,-0.00006868,-0.00005928,0.00016701,0.0
 0007967,0.00013216,0.00020342,-0.00000955,-0.00000631,0.00008984,0.000
 63395,0.00097332,0.00126535,-0.00072904,-0.00038927,0.00011739,-0.0002
 8823,0.00008914,-0.00022427,0.00022357,0.00029268,-0.00019043,0.002839
 45,-0.00044914,-0.00048688,-0.00257033,-0.00023102,-0.00145880,-0.0002
 5930,-0.00010993,-0.00003260,-0.00011758,-0.00003610,-0.00009445,0.001
 57394,-0.00109344,-0.00004355,-0.00178339,-0.00225982,-0.00203806,0.00
 001241,0.00028720,0.00011259,-0.00005960,0.00001615,0.00006865,0.00005
 024,-0.00003323,-0.00003168,-0.00000991,0.00000374,-0.00004178,-0.0000
 0039,0.00000024,-0.00002963,0.00000081,-0.00000369,0.00003417,0.000005
 10,-0.00000346,-0.00001932,0.00005097,-0.00013914,-0.00398535,0.000524
 04,0.00029733,-0.00030777,-0.00214959,-0.00125198,0.00111252,-0.001486
 07,0.00084361,0.00120295,-0.01766849,-0.01304703,0.00451585,-0.0009134
 1,-0.00022685,-0.00001159,0.00025289,-0.00019373,-0.00000217,0.0002659
 1,-0.00017797,0.00006297,-0.00019377,0.00011573,-0.00011865,-0.0026549
 3,-0.00097567,-0.00323376,0.00046642,0.00021134,-0.00013360,-0.0000070
 0,-0.00000541,-0.00001099,-0.00002131,0.00000735,-0.00002079,0.0000015
 9,0.00000907,0.00001306,-0.00000580,-0.00000384,-0.00000083,0.00000529
 ,0.00000644,0.00001220,0.00001365,-0.00000156,-0.00000005,-0.00001955,
 0.00000314,-0.00000435,0.00000826,-0.00000638,-0.00000526,0.00000789,0
 .00000327,-0.00001136,-0.00000940,0.00001379,0.00001112,0.00000382,0.0
 0000733,-0.00000231,0.00001911,0.00000431,0.00000831,0.00000407,-0.000
 00199,-0.00001774,0.05214016,0.04060207,-0.06512152,0.01646416,0.01061
 918,-0.00753521,-0.05583126,-0.04452210,0.07976192,0.00008636,-0.00004
 929,-0.00011049,-0.00002035,0.00001829,0.00005183,0.00003374,0.0000194
 3,0.00004350,-0.00005808,-0.00033576,0.00007389,0.00011805,0.00007500,
 -0.00004586,-0.00007567,-0.00006479,-0.00006970,-0.00021701,0.00002091
 ,0.00013783,0.00002363,0.00002783,0.00003212,-0.00001256,-0.00002626,-
 0.00001188,0.00001347,0.00001609,0.00001255,-0.00000012,0.00001672,-0.
 00005566,0.00000615,0.00001017,-0.00000158,-0.00018436,0.00011835,0.00
 004533,0.00002570,-0.00007662,-0.00002478,0.00001809,0.00003239,-0.000
 02191,0.00011531,0.00002807,0.00005572,-0.00032099,0.00002372,0.000012
 24,-0.00007685,-0.00036551,-0.00008970,0.00003465,0.00001947,-0.000008
 98,-0.00000561,0.00003590,-0.00002734,-0.00026165,-0.00005238,0.000730
 19,-0.00013574,0.00017173,0.00006499,-0.00000111,0.00000766,-0.0000256
 3,0.00000789,-0.00000701,-0.00002027,0.00001725,0.00000786,0.00000590,
 -0.00000485,0.00001949,0.00008990,0.00000888,0.00002802,-0.00000404,-0
 .00000037,-0.00000537,-0.00001097,0.00000438,-0.00001381,-0.00000059,-
 0.00010281,-0.00011452,0.00004180,-0.00046669,-0.00012586,0.00015310,-
 0.00254913,0.00049140,-0.00355571,0.00115886,0.00118375,-0.00039242,-0
 .00526910,0.01149494,-0.00931444,0.00067500,-0.00022515,-0.00054899,-0
 .00047307,-0.00042838,0.00091213,0.00000722,0.00052591,0.00006144,-0.0
 0011384,-0.00004485,0.00001424,-0.00047906,-0.00014804,-0.00021747,-0.
 00011958,-0.00018665,0.00010102,-0.00003104,0.00001424,-0.00002863,0.0
 0013920,-0.00000294,0.00000937,-0.00002795,0.00003721,0.00000277,-0.00
 002981,-0.00000268,0.00000405,0.00001065,0.00000160,0.00000525,-0.0000
 1193,0.00000529,-0.00000025,0.00000583,-0.00001599,0.00002559,-0.00001
 501,0.00000375,-0.00000817,0.00002129,-0.00001709,-0.00001119,0.000000
 05,-0.00003534,0.00000621,-0.00000013,0.00000072,-0.00000097,0.0000058
 1,0.00000322,-0.00000871,0.00001551,0.00001345,-0.00000498,-0.07393493
 ,0.07112494,-0.03833870,-0.00886343,0.01954703,-0.00740917,0.00838652,
 -0.01835261,0.01013491,0.08292329,-0.00019644,0.00001429,-0.00020738,-
 0.00000667,0.00004130,-0.00002949,0.00012878,0.00008977,-0.00004805,0.
 00001147,-0.00033068,0.00002679,0.00001211,0.00005096,0.00017459,-0.00
 002558,0.00006286,-0.00010629,-0.00007085,-0.00001726,0.00027517,-0.00
 000483,-0.00000154,0.00005136,-0.00000504,0.00002317,-0.00000543,-0.00
 000572,0.00000888,0.00000514,-0.00007172,-0.00004241,0.00004714,0.0000
 0899,0.00000291,-0.00001310,-0.00006213,0.00020341,0.00019023,0.000023
 23,-0.00010942,-0.00011974,0.00005247,0.00007385,-0.00009963,0.0000941
 1,0.00010545,0.00006260,0.00013400,-0.00000510,-0.00009811,-0.00043753
 ,-0.00057470,-0.00023895,0.00003769,-0.00000470,0.00001299,0.00003738,
 0.00003024,-0.00004488,-0.00008396,0.00045201,0.00031962,0.00037528,0.
 00009492,-0.00031187,0.00003838,-0.00001648,0.00000295,-0.00001511,0.0
 0000554,-0.00002506,0.00000273,0.00001176,0.00001705,-0.00000103,-0.00
 000729,-0.00002249,0.00000589,-0.00001176,-0.00000487,-0.00001281,0.00
 000054,0.00001155,-0.00003125,0.00002493,-0.00002306,0.00018654,-0.000
 36701,0.00064514,-0.00044014,-0.00014107,0.00039337,-0.00007433,0.0003
 7141,-0.00048945,-0.00001736,0.00074566,-0.00072025,-0.00157248,0.0057
 6168,-0.00136966,-0.00010246,0.00009290,-0.00032391,0.00013053,0.00057
 544,0.00033019,-0.00014822,0.00037580,0.00003571,0.00012066,0.00007923
 ,-0.00012228,-0.00004099,-0.00009403,-0.00009303,-0.00001496,-0.000031
 19,0.00009170,0.00000737,0.00000575,0.00001299,-0.00009286,-0.00000142
 ,-0.00006711,0.00001764,-0.00001410,-0.00000490,0.00000803,0.00000803,
 -0.00000383,0.00000425,0.00000538,0.00000610,0.00000649,0.00000033,0.0
 0000330,-0.00000313,-0.00000046,-0.00000955,0.00001552,-0.00000335,0.0
 0000572,-0.00002862,0.00001368,0.00002630,-0.00000194,0.00002280,-0.00
 002145,0.00000746,0.00000236,-0.00000385,0.00000724,0.00000798,0.00000
 583,-0.00001162,-0.00001192,0.00000381,0.07152635,-0.20415723,0.090989
 61,0.00909606,-0.01736010,0.00655362,0.00593076,-0.01690187,0.00917940
 ,-0.08444765,0.23083987,0.00034608,-0.00015582,0.00018273,-0.00001338,
 -0.00002218,0.00005660,-0.00014427,-0.00009505,0.00001633,0.00005759,0
 .00009803,-0.00007183,-0.00006370,-0.00006429,-0.00003839,-0.00005280,
 -0.00005488,0.00000424,0.00014666,0.00014711,-0.00019680,0.00000138,-0
 .00002989,-0.00001904,-0.00000110,-0.00002322,0.00000655,0.00000045,-0
 .00001423,0.00001446,0.00008899,0.00006792,-0.00004458,-0.00001033,-0.
 00001461,0.00003140,-0.00006234,0.00004512,0.00018320,-0.00000643,-0.0
 0000487,-0.00001218,-0.00005617,-0.00003996,0.00004919,-0.00000969,-0.
 00008979,-0.00017599,0.00010353,0.00012667,0.00009035,0.00002212,0.000
 04620,0.00020022,-0.00005119,-0.00003504,-0.00001932,-0.00005563,-0.00
 004379,0.00000836,0.00086868,-0.00007219,-0.00081828,-0.00032161,-0.00
 022461,0.00021728,-0.00000688,0.00005087,-0.00002241,-0.00000484,-0.00
 001797,0.00002788,0.00001086,-0.00000310,-0.00005792,-0.00000089,0.000
 01791,0.00004035,-0.00001596,0.00002565,-0.00000073,0.00000892,-0.0000
 0436,0.00000431,0.00001037,-0.00002773,0.00004229,-0.00018694,0.000625
 09,-0.00073150,-0.00016001,-0.00031220,0.00031454,-0.00504087,0.000995
 42,-0.00634331,-0.00051308,0.00254927,-0.00165874,-0.00857768,0.015949
 44,-0.01309672,0.00093750,-0.00043983,-0.00107638,0.00029209,-0.000861
 53,0.00141240,0.00040825,0.00106205,0.00001740,-0.00059024,-0.00017919
 ,0.00001735,-0.00031890,-0.00004574,-0.00023691,-0.00032984,-0.0001600
 7,0.00027138,-0.00003263,0.00002067,-0.00002135,0.00016417,-0.00001951
 ,-0.00000990,-0.00002130,0.00004254,0.00000361,-0.00002143,-0.00000432
 ,0.00000932,0.00001680,0.00000466,0.00001151,-0.00001658,0.00000703,0.
 00000303,0.00001428,-0.00002240,0.00002874,-0.00001074,0.00000596,0.00
 000636,-0.00000819,0.00000122,-0.00000723,0.00001296,-0.00003420,-0.00
 000433,-0.00000120,0.00000460,0.00000147,0.00000923,0.00000027,-0.0000
 0247,-0.00000478,0.00000133,0.00000275,-0.03933245,0.09184644,-0.09296
 487,0.00791851,-0.01606952,0.00872449,-0.00293664,0.01029689,-0.004645
 30,0.04754133,-0.10485224,0.11027641\\0.00000591,0.00000709,0.00000542
 ,0.00000342,0.00000130,-0.00000019,-0.00000114,-0.00000316,-0.00000048
 ,0.00000407,-0.00000230,-0.00000708,0.00000479,0.00000114,-0.00000632,
 -0.00000486,0.00000022,0.00000580,-0.00000394,-0.00000105,0.00000307,0
 .00000099,0.00000059,0.00000308,0.00000241,0.00000067,-0.00000025,-0.0
 0000147,0.00000104,0.00000016,-0.00000044,-0.00000301,0.00000328,-0.00
 000019,0.00000109,-0.00000137,-0.00000208,-0.00000040,0.00000529,0.000
 00249,0.00000085,0.00000182,0.00000350,0.00000051,-0.00000035,-0.00000
 328,-0.00000036,0.00000083,0.00000182,-0.00000148,-0.00000291,0.000000
 36,-0.00000018,-0.00000159,0.00000035,0.00000069,0.00000081,0.00000011
 ,0.00000041,-0.00000053,-0.00000054,-0.00000057,0.00000030,-0.00000680
 ,0.00000029,-0.00000606,-0.00000137,0.00000117,-0.00000061,0.00000008,
 0.00000022,0.00000003,0.00000012,0.00000024,-0.00000020,-0.00000231,-0
 .00000529,0.00000336,0.00000135,0.00000183,-0.00000035,0.00000237,0.00
 000057,-0.00000201,-0.00000193,0.00000212,-0.00000085,0.00000068,-0.00
 000700,0.,0.00000159,0.00000355,-0.00000255,-0.00000114,0.00000100,-0.
 00000044,0.00000040,0.00000133,0.00000088,0.00000116,-0.00000042,0.000
 00036,0.00000595,0.00000889,-0.00000605,-0.00000100,-0.00000304,0.0000
 0159,-0.00000342,-0.00000713,0.00000422,-0.00000348,-0.00000020,-0.000
 00131,-0.00000096,-0.00000007,0.00000034,-0.00000379,-0.00000086,0.000
 00202,0.00000053,0.,0.00000357,0.00000243,-0.00000297,-0.00000577,0.00
 000378,0.00000243,-0.00000096,0.00000189,0.00000312,0.00000656,0.00000
 005,0.00000087,0.00000006,-0.00000132,0.00000041,-0.00000071,0.0000002
 9,-0.00000080,0.00000025,-0.00000259,0.00000171,-0.00000047,0.00000031
 ,0.00000026,0.00000087,-0.00000202,-0.00000180,0.00000182,-0.00000077,
 0.00000032,-0.00000004,-0.00000047,-0.00000399,-0.00000136,-0.00000109
 ,0.00000009,-0.00000423,-0.00000303,-0.00000129,-0.00000017,-0.0000006
 1,0.00000050,0.00000040,0.00000179,0.00000145,-0.00000098,0.00000104,-
 0.00000058,0.\\\@
 The archive entry for this job was punched.


 MAN IS THE MEASURE OF ALL THINGS.
  -- PROTAGORAS (5TH CENTURY B.C.)
 Job cpu time:       0 days  0 hours  0 minutes  0.8 seconds.
 Elapsed time:       0 days  0 hours  0 minutes  8.3 seconds.
 File lengths (MBytes):  RWF=      6 Int=      0 D2E=      0 Chk=      3 Scr=      1
 Normal termination of Gaussian 16 at Sun Sep 28 17:26:33 2025.
